 107 107   0   0
  0.1212439E+02  0.1090639E-08  0.1090639E-08  0.1090639E-08  0.5000000E-15
  1.000000000000000E-004
  CAR 
 unknown system                          
     26.92304970     -7.53010196  301      3.68679146      1.00000000
     -7.530  0.0000E+00  0.0000E+00  0.0000E+00  0.0000E+00
     -7.415  0.0000E+00  0.0000E+00  0.0000E+00  0.0000E+00
     -7.300  0.0000E+00  0.0000E+00  0.0000E+00  0.0000E+00
     -7.186  0.0000E+00  0.0000E+00  0.0000E+00  0.0000E+00
     -7.071  0.0000E+00  0.0000E+00  0.0000E+00  0.0000E+00
     -6.956  0.0000E+00  0.0000E+00  0.0000E+00  0.0000E+00
     -6.841  0.0000E+00  0.0000E+00  0.0000E+00  0.0000E+00
     -6.726  0.0000E+00  0.0000E+00  0.0000E+00  0.0000E+00
     -6.611  0.0000E+00  0.0000E+00  0.0000E+00  0.0000E+00
     -6.497  0.0000E+00  0.0000E+00  0.0000E+00  0.0000E+00
     -6.382  0.0000E+00  0.0000E+00  0.0000E+00  0.0000E+00
     -6.267  0.0000E+00  0.0000E+00  0.0000E+00  0.0000E+00
     -6.152  0.0000E+00  0.0000E+00  0.0000E+00  0.0000E+00
     -6.037  0.0000E+00  0.0000E+00  0.0000E+00  0.0000E+00
     -5.922  0.0000E+00  0.0000E+00  0.0000E+00  0.0000E+00
     -5.807  0.0000E+00  0.0000E+00  0.0000E+00  0.0000E+00
     -5.693  0.0000E+00  0.0000E+00  0.0000E+00  0.0000E+00
     -5.578  0.0000E+00  0.0000E+00  0.0000E+00  0.0000E+00
     -5.463  0.1167E+01  0.1163E+01  0.7370E-01  0.7327E-01
     -5.348  0.2953E+01  0.2951E+01  0.3396E+00  0.3385E+00
     -5.233  0.2944E+01  0.2945E+01  0.6871E+00  0.6859E+00
     -5.118  0.1085E+01  0.1089E+01  0.9455E+00  0.9451E+00
     -5.004  0.4230E+01  0.4221E+01  0.1181E+01  0.1179E+01
     -4.889  0.3254E+01  0.3262E+01  0.1743E+01  0.1742E+01
     -4.774  0.3060E+01  0.3059E+01  0.2103E+01  0.2102E+01
     -4.659  0.2126E+01  0.2126E+01  0.2463E+01  0.2462E+01
     -4.544  0.4547E+01  0.4543E+01  0.2970E+01  0.2968E+01
     -4.429  0.4341E+01  0.4343E+01  0.3707E+01  0.3705E+01
     -4.314  0.2000E+01  0.1984E+01  0.4163E+01  0.4162E+01
     -4.200  0.5584E+01  0.5580E+01  0.4598E+01  0.4596E+01
     -4.085  0.4023E+01  0.4031E+01  0.5233E+01  0.5232E+01
     -3.970  0.5366E+01  0.5391E+01  0.6101E+01  0.6099E+01
     -3.855  0.1762E+02  0.1604E+02  0.6730E+01  0.6724E+01
     -3.740  0.3608E+01  0.3565E+01  0.7275E+01  0.7274E+01
     -3.625  0.0000E+00  0.0000E+00  0.8000E+01  0.8000E+01
     -3.511  0.3409E+01  0.3399E+01  0.8858E+01  0.8857E+01
     -3.396  0.7902E+01  0.7921E+01  0.9632E+01  0.9630E+01
     -3.281  0.4637E+01  0.4633E+01  0.1038E+02  0.1038E+02
     -3.166  0.1007E+02  0.9858E+01  0.1108E+02  0.1108E+02
     -3.051  0.1105E+02  0.1142E+02  0.1233E+02  0.1233E+02
     -2.936  0.6320E+01  0.6302E+01  0.1360E+02  0.1359E+02
     -2.822  0.9007E+01  0.9044E+01  0.1454E+02  0.1454E+02
     -2.707  0.6640E+01  0.6653E+01  0.1585E+02  0.1584E+02
     -2.592  0.3491E+01  0.3494E+01  0.1643E+02  0.1643E+02
     -2.477  0.7315E+01  0.7279E+01  0.1701E+02  0.1700E+02
     -2.362  0.1861E+02  0.1861E+02  0.1889E+02  0.1888E+02
     -2.247  0.9154E+01  0.9037E+01  0.2072E+02  0.2072E+02
     -2.132  0.8801E+01  0.8798E+01  0.2197E+02  0.2196E+02
     -2.018  0.1196E+02  0.1196E+02  0.2300E+02  0.2300E+02
     -1.903  0.1600E+02  0.1590E+02  0.2472E+02  0.2472E+02
     -1.788  0.1525E+02  0.1549E+02  0.2645E+02  0.2644E+02
     -1.673  0.2181E+02  0.2187E+02  0.2907E+02  0.2906E+02
     -1.558  0.4657E+01  0.4657E+01  0.3102E+02  0.3102E+02
     -1.443  0.1537E+02  0.1514E+02  0.3269E+02  0.3269E+02
     -1.329  0.4170E+02  0.4161E+02  0.3686E+02  0.3686E+02
     -1.214  0.3224E+02  0.3197E+02  0.4164E+02  0.4164E+02
     -1.099  0.5819E+02  0.5842E+02  0.4718E+02  0.4718E+02
     -0.984  0.4181E+02  0.4160E+02  0.5467E+02  0.5467E+02
     -0.869  0.6531E+02  0.6551E+02  0.6172E+02  0.6172E+02
     -0.754  0.4706E+02  0.4701E+02  0.6927E+02  0.6926E+02
     -0.639  0.7497E+02  0.7488E+02  0.7875E+02  0.7874E+02
     -0.525  0.1128E+03  0.1130E+03  0.8998E+02  0.8998E+02
     -0.410  0.1347E+03  0.1344E+03  0.1036E+03  0.1036E+03
     -0.295  0.1357E+03  0.1354E+03  0.1188E+03  0.1188E+03
     -0.180  0.1157E+03  0.1157E+03  0.1326E+03  0.1326E+03
     -0.065  0.1096E+03  0.1094E+03  0.1462E+03  0.1462E+03
      0.050  0.1052E+03  0.1052E+03  0.1597E+03  0.1597E+03
      0.164  0.1140E+03  0.1139E+03  0.1739E+03  0.1739E+03
      0.279  0.1541E+03  0.1509E+03  0.1902E+03  0.1902E+03
      0.394  0.1726E+03  0.1725E+03  0.2101E+03  0.2101E+03
      0.509  0.1564E+03  0.1556E+03  0.2282E+03  0.2282E+03
      0.624  0.2027E+03  0.2020E+03  0.2521E+03  0.2521E+03
      0.739  0.1816E+03  0.1683E+03  0.2761E+03  0.2761E+03
      0.853  0.2661E+03  0.2452E+03  0.3030E+03  0.3030E+03
      0.968  0.1794E+03  0.1785E+03  0.3251E+03  0.3252E+03
      1.083  0.1250E+03  0.1417E+03  0.3427E+03  0.3427E+03
      1.198  0.1282E+03  0.1220E+03  0.3597E+03  0.3598E+03
      1.313  0.2069E+03  0.1875E+03  0.3793E+03  0.3793E+03
      1.428  0.1884E+03  0.1876E+03  0.4033E+03  0.4033E+03
      1.543  0.2104E+03  0.2102E+03  0.4259E+03  0.4260E+03
      1.657  0.1856E+03  0.1890E+03  0.4463E+03  0.4463E+03
      1.772  0.1847E+03  0.1865E+03  0.4678E+03  0.4678E+03
      1.887  0.1751E+03  0.1841E+03  0.4915E+03  0.4915E+03
      2.002  0.4109E+03  0.3585E+03  0.5240E+03  0.5240E+03
      2.117  0.1367E+03  0.1366E+03  0.5501E+03  0.5501E+03
      2.232  0.2610E+02  0.2605E+02  0.5572E+03  0.5572E+03
      2.346  0.1772E+02  0.1771E+02  0.5595E+03  0.5595E+03
      2.461  0.2438E+02  0.2439E+02  0.5629E+03  0.5629E+03
      2.576  0.1512E+02  0.1512E+02  0.5646E+03  0.5646E+03
      2.691  0.5813E+01  0.5813E+01  0.5663E+03  0.5663E+03
      2.806  0.2828E+02  0.2829E+02  0.5691E+03  0.5691E+03
      2.921  0.1594E+02  0.1594E+02  0.5718E+03  0.5718E+03
      3.036  0.8613E+01  0.8586E+01  0.5731E+03  0.5731E+03
      3.150  0.2231E+02  0.2230E+02  0.5754E+03  0.5754E+03
      3.265  0.6511E+02  0.6014E+02  0.5780E+03  0.5780E+03
      3.380  0.1659E+02  0.1657E+02  0.5803E+03  0.5803E+03
      3.495  0.1380E+02  0.1381E+02  0.5820E+03  0.5820E+03
      3.610  0.1266E+02  0.1265E+02  0.5836E+03  0.5836E+03
      3.725  0.1428E+02  0.1428E+02  0.5851E+03  0.5851E+03
      3.839  0.1557E+02  0.1561E+02  0.5870E+03  0.5870E+03
      3.954  0.3196E+02  0.3225E+02  0.5888E+03  0.5888E+03
      4.069  0.1442E+02  0.1460E+02  0.5918E+03  0.5918E+03
      4.184  0.1003E+02  0.1002E+02  0.5934E+03  0.5934E+03
      4.299  0.6230E+01  0.6181E+01  0.5943E+03  0.5943E+03
      4.414  0.1459E+02  0.1449E+02  0.5954E+03  0.5954E+03
      4.529  0.1643E+02  0.1646E+02  0.5971E+03  0.5971E+03
      4.643  0.1386E+02  0.1387E+02  0.5989E+03  0.5989E+03
      4.758  0.1916E+02  0.1914E+02  0.6009E+03  0.6009E+03
      4.873  0.1450E+02  0.1449E+02  0.6031E+03  0.6031E+03
      4.988  0.1459E+02  0.1460E+02  0.6047E+03  0.6047E+03
      5.103  0.1597E+02  0.1595E+02  0.6065E+03  0.6065E+03
      5.218  0.6967E+01  0.6969E+01  0.6079E+03  0.6079E+03
      5.332  0.1256E+02  0.1256E+02  0.6091E+03  0.6091E+03
      5.447  0.8297E+01  0.8301E+01  0.6104E+03  0.6104E+03
      5.562  0.1723E+02  0.1724E+02  0.6118E+03  0.6118E+03
      5.677  0.6391E+01  0.6393E+01  0.6131E+03  0.6131E+03
      5.792  0.1043E+02  0.1042E+02  0.6146E+03  0.6146E+03
      5.907  0.1395E+02  0.1405E+02  0.6168E+03  0.6168E+03
      6.021  0.7795E+01  0.7795E+01  0.6181E+03  0.6181E+03
      6.136  0.1274E+02  0.1271E+02  0.6192E+03  0.6192E+03
      6.251  0.1219E+02  0.1164E+02  0.6206E+03  0.6206E+03
      6.366  0.4696E+01  0.4706E+01  0.6221E+03  0.6221E+03
      6.481  0.7176E+01  0.7171E+01  0.6228E+03  0.6228E+03
      6.596  0.9049E+01  0.9052E+01  0.6240E+03  0.6240E+03
      6.711  0.9272E+01  0.9275E+01  0.6253E+03  0.6253E+03
      6.825  0.7047E+01  0.7150E+01  0.6263E+03  0.6263E+03
      6.940  0.1312E+02  0.1309E+02  0.6274E+03  0.6274E+03
      7.055  0.1022E+02  0.1024E+02  0.6285E+03  0.6285E+03
      7.170  0.1665E+02  0.1661E+02  0.6300E+03  0.6300E+03
      7.285  0.1080E+02  0.1081E+02  0.6316E+03  0.6316E+03
      7.400  0.8529E+01  0.8536E+01  0.6330E+03  0.6330E+03
      7.514  0.5600E+01  0.5602E+01  0.6338E+03  0.6338E+03
      7.629  0.2211E+02  0.2208E+02  0.6349E+03  0.6349E+03
      7.744  0.1731E+02  0.1737E+02  0.6369E+03  0.6369E+03
      7.859  0.1854E+02  0.1852E+02  0.6393E+03  0.6393E+03
      7.974  0.2975E+02  0.2936E+02  0.6414E+03  0.6414E+03
      8.089  0.2019E+02  0.2018E+02  0.6425E+03  0.6425E+03
      8.204  0.1886E+02  0.1852E+02  0.6441E+03  0.6441E+03
      8.318  0.2156E+02  0.2150E+02  0.6462E+03  0.6462E+03
      8.433  0.1228E+02  0.1228E+02  0.6481E+03  0.6481E+03
      8.548  0.2149E+02  0.2164E+02  0.6498E+03  0.6498E+03
      8.663  0.1009E+02  0.1007E+02  0.6517E+03  0.6517E+03
      8.778  0.2713E+01  0.2706E+01  0.6532E+03  0.6532E+03
      8.893  0.1352E+02  0.1352E+02  0.6550E+03  0.6550E+03
      9.007  0.3447E+01  0.3440E+01  0.6572E+03  0.6572E+03
      9.122  0.9819E+01  0.1022E+02  0.6580E+03  0.6580E+03
      9.237  0.1255E+02  0.1254E+02  0.6593E+03  0.6593E+03
      9.352  0.1583E+02  0.1585E+02  0.6611E+03  0.6611E+03
      9.467  0.1212E+02  0.1211E+02  0.6628E+03  0.6628E+03
      9.582  0.2210E+02  0.2218E+02  0.6651E+03  0.6651E+03
      9.696  0.1085E+02  0.1056E+02  0.6669E+03  0.6669E+03
      9.811  0.8955E+01  0.8952E+01  0.6679E+03  0.6679E+03
      9.926  0.1319E+02  0.1322E+02  0.6692E+03  0.6692E+03
     10.041  0.1665E+02  0.2126E+02  0.6711E+03  0.6711E+03
     10.156  0.1024E+02  0.1024E+02  0.6728E+03  0.6728E+03
     10.271  0.6185E+01  0.5980E+01  0.6738E+03  0.6738E+03
     10.386  0.1516E+02  0.1522E+02  0.6753E+03  0.6753E+03
     10.500  0.1458E+02  0.1425E+02  0.6770E+03  0.6770E+03
     10.615  0.1282E+02  0.1284E+02  0.6786E+03  0.6786E+03
     10.730  0.1447E+02  0.1445E+02  0.6801E+03  0.6801E+03
     10.845  0.1344E+02  0.1344E+02  0.6819E+03  0.6819E+03
     10.960  0.1936E+02  0.1946E+02  0.6838E+03  0.6838E+03
     11.075  0.2146E+02  0.2147E+02  0.6859E+03  0.6859E+03
     11.189  0.2039E+02  0.2045E+02  0.6881E+03  0.6881E+03
     11.304  0.1299E+02  0.1331E+02  0.6899E+03  0.6899E+03
     11.419  0.1772E+02  0.1774E+02  0.6917E+03  0.6917E+03
     11.534  0.1338E+02  0.1351E+02  0.6936E+03  0.6936E+03
     11.649  0.1598E+02  0.1596E+02  0.6953E+03  0.6953E+03
     11.764  0.2136E+02  0.1972E+02  0.6972E+03  0.6972E+03
     11.879  0.1957E+02  0.1973E+02  0.6993E+03  0.6993E+03
     11.993  0.1866E+02  0.1871E+02  0.7013E+03  0.7013E+03
     12.108  0.2450E+02  0.2465E+02  0.7038E+03  0.7038E+03
     12.223  0.2602E+02  0.2583E+02  0.7068E+03  0.7068E+03
     12.338  0.2096E+02  0.2096E+02  0.7096E+03  0.7096E+03
     12.453  0.1532E+02  0.1538E+02  0.7114E+03  0.7114E+03
     12.568  0.1464E+02  0.1463E+02  0.7132E+03  0.7132E+03
     12.682  0.1536E+02  0.1537E+02  0.7150E+03  0.7150E+03
     12.797  0.2462E+02  0.2640E+02  0.7177E+03  0.7177E+03
     12.912  0.2876E+02  0.2878E+02  0.7204E+03  0.7204E+03
     13.027  0.1694E+02  0.1712E+02  0.7228E+03  0.7228E+03
     13.142  0.1500E+02  0.1500E+02  0.7247E+03  0.7247E+03
     13.257  0.1481E+02  0.1559E+02  0.7266E+03  0.7266E+03
     13.371  0.1797E+02  0.1798E+02  0.7281E+03  0.7281E+03
     13.486  0.1316E+02  0.1315E+02  0.7300E+03  0.7300E+03
     13.601  0.2232E+02  0.2231E+02  0.7323E+03  0.7323E+03
     13.716  0.1534E+02  0.1544E+02  0.7348E+03  0.7348E+03
     13.831  0.2046E+02  0.2047E+02  0.7376E+03  0.7376E+03
     13.946  0.2261E+02  0.2302E+02  0.7399E+03  0.7399E+03
     14.061  0.1120E+02  0.1133E+02  0.7426E+03  0.7425E+03
     14.175  0.2244E+02  0.2259E+02  0.7450E+03  0.7450E+03
     14.290  0.1080E+02  0.1081E+02  0.7471E+03  0.7471E+03
     14.405  0.9872E+01  0.9812E+01  0.7492E+03  0.7492E+03
     14.520  0.2060E+02  0.2069E+02  0.7512E+03  0.7512E+03
     14.635  0.2736E+02  0.3088E+02  0.7539E+03  0.7538E+03
     14.750  0.1972E+02  0.1968E+02  0.7565E+03  0.7565E+03
     14.864  0.1622E+02  0.1623E+02  0.7589E+03  0.7589E+03
     14.979  0.2103E+02  0.2104E+02  0.7611E+03  0.7611E+03
     15.094  0.1394E+02  0.1400E+02  0.7635E+03  0.7635E+03
     15.209  0.2395E+02  0.2398E+02  0.7664E+03  0.7664E+03
     15.324  0.2025E+02  0.2039E+02  0.7688E+03  0.7688E+03
     15.439  0.1920E+02  0.1917E+02  0.7707E+03  0.7707E+03
     15.554  0.1720E+02  0.1719E+02  0.7729E+03  0.7729E+03
     15.668  0.1298E+02  0.1286E+02  0.7760E+03  0.7760E+03
     15.783  0.1327E+02  0.1327E+02  0.7773E+03  0.7773E+03
     15.898  0.2958E+02  0.2943E+02  0.7798E+03  0.7798E+03
     16.013  0.2459E+02  0.2450E+02  0.7831E+03  0.7830E+03
     16.128  0.1842E+02  0.1851E+02  0.7855E+03  0.7855E+03
     16.243  0.2427E+02  0.2435E+02  0.7880E+03  0.7880E+03
     16.357  0.2082E+02  0.2107E+02  0.7903E+03  0.7903E+03
     16.472  0.2546E+02  0.2535E+02  0.7929E+03  0.7929E+03
     16.587  0.1360E+02  0.1361E+02  0.7956E+03  0.7956E+03
     16.702  0.2504E+02  0.2513E+02  0.7980E+03  0.7980E+03
     16.817  0.2724E+02  0.2733E+02  0.8014E+03  0.8014E+03
     16.932  0.2772E+02  0.2770E+02  0.8046E+03  0.8046E+03
     17.046  0.2261E+02  0.2259E+02  0.8076E+03  0.8076E+03
     17.161  0.1840E+02  0.1833E+02  0.8105E+03  0.8105E+03
     17.276  0.1864E+02  0.1866E+02  0.8130E+03  0.8130E+03
     17.391  0.2895E+02  0.3179E+02  0.8156E+03  0.8156E+03
     17.506  0.1604E+02  0.1592E+02  0.8186E+03  0.8185E+03
     17.621  0.1866E+02  0.1856E+02  0.8209E+03  0.8209E+03
     17.736  0.2288E+02  0.2349E+02  0.8227E+03  0.8227E+03
     17.850  0.2534E+02  0.2709E+02  0.8254E+03  0.8254E+03
     17.965  0.1280E+02  0.1279E+02  0.8276E+03  0.8276E+03
     18.080  0.3315E+02  0.3313E+02  0.8307E+03  0.8307E+03
     18.195  0.2945E+02  0.3002E+02  0.8339E+03  0.8339E+03
     18.310  0.2893E+02  0.2767E+02  0.8363E+03  0.8363E+03
     18.425  0.1708E+02  0.1708E+02  0.8390E+03  0.8390E+03
     18.539  0.1569E+02  0.1571E+02  0.8411E+03  0.8411E+03
     18.654  0.1571E+02  0.1579E+02  0.8430E+03  0.8430E+03
     18.769  0.2681E+02  0.2719E+02  0.8455E+03  0.8455E+03
     18.884  0.2600E+02  0.2584E+02  0.8485E+03  0.8485E+03
     18.999  0.2403E+02  0.2406E+02  0.8512E+03  0.8511E+03
     19.114  0.1349E+02  0.1350E+02  0.8532E+03  0.8532E+03
     19.229  0.2035E+02  0.2040E+02  0.8552E+03  0.8552E+03
     19.343  0.2147E+02  0.2151E+02  0.8578E+03  0.8578E+03
     19.458  0.2046E+02  0.2036E+02  0.8604E+03  0.8604E+03
     19.573  0.1925E+02  0.1925E+02  0.8630E+03  0.8630E+03
     19.688  0.1895E+02  0.1895E+02  0.8656E+03  0.8656E+03
     19.803  0.1264E+02  0.1263E+02  0.8678E+03  0.8678E+03
     19.918  0.1736E+02  0.1732E+02  0.8700E+03  0.8700E+03
     20.032  0.1300E+02  0.1279E+02  0.8720E+03  0.8720E+03
     20.147  0.9519E+01  0.9459E+01  0.8736E+03  0.8736E+03
     20.262  0.1660E+02  0.1659E+02  0.8753E+03  0.8753E+03
     20.377  0.2000E+02  0.1988E+02  0.8772E+03  0.8772E+03
     20.492  0.2015E+02  0.2026E+02  0.8796E+03  0.8796E+03
     20.607  0.1501E+02  0.1491E+02  0.8817E+03  0.8817E+03
     20.721  0.1553E+02  0.1554E+02  0.8836E+03  0.8836E+03
     20.836  0.1368E+02  0.1368E+02  0.8855E+03  0.8855E+03
     20.951  0.1648E+02  0.1650E+02  0.8874E+03  0.8874E+03
     21.066  0.1984E+02  0.1995E+02  0.8896E+03  0.8896E+03
     21.181  0.1825E+02  0.1826E+02  0.8917E+03  0.8917E+03
     21.296  0.2136E+02  0.2135E+02  0.8940E+03  0.8940E+03
     21.411  0.1802E+02  0.1803E+02  0.8961E+03  0.8961E+03
     21.525  0.1522E+02  0.1522E+02  0.8981E+03  0.8981E+03
     21.640  0.1954E+02  0.1946E+02  0.9003E+03  0.9003E+03
     21.755  0.2327E+02  0.2321E+02  0.9028E+03  0.9028E+03
     21.870  0.1658E+02  0.1653E+02  0.9051E+03  0.9051E+03
     21.985  0.1553E+02  0.1554E+02  0.9071E+03  0.9071E+03
     22.100  0.1519E+02  0.1515E+02  0.9090E+03  0.9090E+03
     22.214  0.1710E+02  0.1707E+02  0.9110E+03  0.9110E+03
     22.329  0.2390E+02  0.2373E+02  0.9132E+03  0.9132E+03
     22.444  0.1684E+02  0.1684E+02  0.9156E+03  0.9156E+03
     22.559  0.1927E+02  0.1995E+02  0.9177E+03  0.9177E+03
     22.674  0.3074E+02  0.2946E+02  0.9198E+03  0.9198E+03
     22.789  0.2067E+02  0.2070E+02  0.9221E+03  0.9221E+03
     22.904  0.2491E+02  0.2483E+02  0.9249E+03  0.9249E+03
     23.018  0.2669E+02  0.2664E+02  0.9280E+03  0.9280E+03
     23.133  0.2042E+02  0.2032E+02  0.9311E+03  0.9311E+03
     23.248  0.1424E+02  0.1422E+02  0.9329E+03  0.9329E+03
     23.363  0.5458E+02  0.4314E+02  0.9355E+03  0.9355E+03
     23.478  0.2483E+02  0.2423E+02  0.9387E+03  0.9387E+03
     23.593  0.2689E+02  0.2630E+02  0.9417E+03  0.9417E+03
     23.707  0.1919E+02  0.1916E+02  0.9442E+03  0.9442E+03
     23.822  0.4002E+02  0.4022E+02  0.9468E+03  0.9468E+03
     23.937  0.3630E+02  0.3080E+02  0.9498E+03  0.9498E+03
     24.052  0.2623E+02  0.2711E+02  0.9532E+03  0.9532E+03
     24.167  0.2804E+02  0.2813E+02  0.9564E+03  0.9564E+03
     24.282  0.2180E+02  0.2179E+02  0.9589E+03  0.9589E+03
     24.396  0.4179E+02  0.4241E+02  0.9625E+03  0.9625E+03
     24.511  0.1738E+02  0.1750E+02  0.9662E+03  0.9662E+03
     24.626  0.1727E+02  0.1763E+02  0.9682E+03  0.9682E+03
     24.741  0.1980E+02  0.1634E+02  0.9705E+03  0.9705E+03
     24.856  0.4586E+01  0.4494E+01  0.9719E+03  0.9718E+03
     24.971  0.0000E+00  0.0000E+00  0.9720E+03  0.9720E+03
     25.086  0.0000E+00  0.0000E+00  0.9720E+03  0.9720E+03
     25.200  0.0000E+00  0.0000E+00  0.9720E+03  0.9720E+03
     25.315  0.0000E+00  0.0000E+00  0.9720E+03  0.9720E+03
     25.430  0.0000E+00  0.0000E+00  0.9720E+03  0.9720E+03
     25.545  0.0000E+00  0.0000E+00  0.9720E+03  0.9720E+03
     25.660  0.0000E+00  0.0000E+00  0.9720E+03  0.9720E+03
     25.775  0.0000E+00  0.0000E+00  0.9720E+03  0.9720E+03
     25.889  0.0000E+00  0.0000E+00  0.9720E+03  0.9720E+03
     26.004  0.0000E+00  0.0000E+00  0.9720E+03  0.9720E+03
     26.119  0.0000E+00  0.0000E+00  0.9720E+03  0.9720E+03
     26.234  0.0000E+00  0.0000E+00  0.9720E+03  0.9720E+03
     26.349  0.0000E+00  0.0000E+00  0.9720E+03  0.9720E+03
     26.464  0.0000E+00  0.0000E+00  0.9720E+03  0.9720E+03
     26.579  0.0000E+00  0.0000E+00  0.9720E+03  0.9720E+03
     26.693  0.0000E+00  0.0000E+00  0.9720E+03  0.9720E+03
     26.808  0.0000E+00  0.0000E+00  0.9720E+03  0.9720E+03
     26.923  0.0000E+00  0.0000E+00  0.9720E+03  0.9720E+03
