   3   3   0   0
  0.2274357E+02  0.4086266E-09  0.4086266E-09  0.4086266E-09  0.1000000E-16
  1.000000000000000E-004
  CAR 
 unknown system                          
     11.58066660     -4.96748308  301      5.62817975      1.00000000
     -4.967  0.0000E+00  0.0000E+00
     -4.912  0.0000E+00  0.0000E+00
     -4.857  0.0000E+00  0.0000E+00
     -4.802  0.0000E+00  0.0000E+00
     -4.747  0.0000E+00  0.0000E+00
     -4.692  0.0000E+00  0.0000E+00
     -4.637  0.0000E+00  0.0000E+00
     -4.581 -0.4341E-26 -0.2394E-27
     -4.526 -0.3287E-24 -0.1837E-25
     -4.471 -0.2159E-22 -0.1209E-23
     -4.416 -0.1216E-20 -0.6826E-22
     -4.361 -0.5868E-19 -0.3305E-20
     -4.306 -0.2428E-17 -0.1372E-18
     -4.250 -0.8606E-16 -0.4884E-17
     -4.195 -0.2614E-14 -0.1491E-15
     -4.140 -0.6597E-13 -0.3788E-14
     -4.085 -0.1466E-11 -0.8463E-13
     -4.030 -0.2784E-10 -0.1620E-11
     -3.975 -0.4519E-09 -0.2655E-10
     -3.919 -0.6266E-08 -0.3722E-09
     -3.864 -0.7416E-07 -0.4463E-08
     -3.809 -0.7482E-06 -0.4573E-07
     -3.754 -0.6426E-05 -0.4002E-06
     -3.699 -0.4690E-04 -0.2987E-05
     -3.644 -0.2901E-03 -0.1899E-04
     -3.588 -0.1516E-02 -0.1026E-03
     -3.533 -0.6664E-02 -0.4702E-03
     -3.478 -0.2445E-01 -0.1819E-02
     -3.423 -0.7403E-01 -0.5902E-02
     -3.368 -0.1812E+00 -0.1590E-01
     -3.313 -0.3438E+00 -0.3486E-01
     -3.258 -0.4487E+00 -0.5961E-01
     -3.202 -0.1897E+00 -0.7008E-01
     -3.147  0.8665E+00 -0.2228E-01
     -3.092  0.2944E+01  0.1401E+00
     -3.037  0.5621E+01  0.4502E+00
     -2.982  0.7792E+01  0.8800E+00
     -2.927  0.8313E+01  0.1339E+01
     -2.871  0.6887E+01  0.1718E+01
     -2.816  0.4308E+01  0.1956E+01
     -2.761  0.1818E+01  0.2056E+01
     -2.706  0.2307E+00  0.2069E+01
     -2.651 -0.3875E+00  0.2048E+01
     -2.596 -0.4195E+00  0.2025E+01
     -2.540 -0.2615E+00  0.2010E+01
     -2.485 -0.1209E+00  0.2003E+01
     -2.430 -0.4438E-01  0.2001E+01
     -2.375 -0.1333E-01  0.2000E+01
     -2.320 -0.3326E-02  0.2000E+01
     -2.265 -0.6954E-03  0.2000E+01
     -2.209 -0.1226E-03  0.2000E+01
     -2.154 -0.1828E-04  0.2000E+01
     -2.099 -0.2314E-05  0.2000E+01
     -2.044 -0.2492E-06  0.2000E+01
     -1.989 -0.2286E-07  0.2000E+01
     -1.934 -0.1788E-08  0.2000E+01
     -1.878 -0.1195E-09  0.2000E+01
     -1.823 -0.6819E-11  0.2000E+01
     -1.768 -0.3301E-12  0.2000E+01
     -1.713 -0.1610E-13  0.2000E+01
     -1.658  0.0000E+00  0.2000E+01
     -1.603  0.0000E+00  0.2000E+01
     -1.548  0.0000E+00  0.2000E+01
     -1.492  0.0000E+00  0.2000E+01
     -1.437  0.0000E+00  0.2000E+01
     -1.382  0.0000E+00  0.2000E+01
     -1.327  0.0000E+00  0.2000E+01
     -1.272  0.0000E+00  0.2000E+01
     -1.217  0.0000E+00  0.2000E+01
     -1.161  0.0000E+00  0.2000E+01
     -1.106  0.0000E+00  0.2000E+01
     -1.051  0.0000E+00  0.2000E+01
     -0.996  0.0000E+00  0.2000E+01
     -0.941  0.0000E+00  0.2000E+01
     -0.886  0.0000E+00  0.2000E+01
     -0.830  0.0000E+00  0.2000E+01
     -0.775  0.0000E+00  0.2000E+01
     -0.720  0.0000E+00  0.2000E+01
     -0.665  0.0000E+00  0.2000E+01
     -0.610  0.0000E+00  0.2000E+01
     -0.555  0.0000E+00  0.2000E+01
     -0.499  0.0000E+00  0.2000E+01
     -0.444  0.0000E+00  0.2000E+01
     -0.389  0.0000E+00  0.2000E+01
     -0.334 -0.7494E-27  0.2000E+01
     -0.279 -0.6175E-25  0.2000E+01
     -0.224 -0.4409E-23  0.2000E+01
     -0.169 -0.2699E-21  0.2000E+01
     -0.113 -0.1417E-19  0.2000E+01
     -0.058 -0.6376E-18  0.2000E+01
     -0.003 -0.2459E-16  0.2000E+01
      0.052 -0.8127E-15  0.2000E+01
      0.107 -0.2301E-13  0.2000E+01
      0.162 -0.5396E-12  0.2000E+01
      0.218 -0.1119E-10  0.2000E+01
      0.273 -0.1980E-09  0.2000E+01
      0.328 -0.2993E-08  0.2000E+01
      0.383 -0.3864E-07  0.2000E+01
      0.438 -0.4256E-06  0.2000E+01
      0.493 -0.3995E-05  0.2000E+01
      0.549 -0.3189E-04  0.2000E+01
      0.604 -0.2162E-03  0.2000E+01
      0.659 -0.1240E-02  0.2000E+01
      0.714 -0.6001E-02  0.2000E+01
      0.769 -0.2435E-01  0.1998E+01
      0.824 -0.8212E-01  0.1994E+01
      0.880 -0.2269E+00  0.1981E+01
      0.935 -0.4993E+00  0.1954E+01
      0.990 -0.8212E+00  0.1908E+01
      1.045 -0.8060E+00  0.1864E+01
      1.100  0.3181E+00  0.1881E+01
      1.155  0.3343E+01  0.2066E+01
      1.210  0.8228E+01  0.2520E+01
      1.266  0.1345E+02  0.3262E+01
      1.321  0.1654E+02  0.4174E+01
      1.376  0.1578E+02  0.5044E+01
      1.431  0.1160E+02  0.5684E+01
      1.486  0.6212E+01  0.6027E+01
      1.541  0.1857E+01  0.6129E+01
      1.597 -0.5318E+00  0.6100E+01
      1.652 -0.1299E+01  0.6028E+01
      1.707 -0.1123E+01  0.5966E+01
      1.762 -0.2662E+00  0.5952E+01
      1.817  0.1426E+01  0.6030E+01
      1.872  0.3946E+01  0.6248E+01
      1.928  0.6614E+01  0.6613E+01
      1.983  0.8240E+01  0.7067E+01
      2.038  0.7949E+01  0.7506E+01
      2.093  0.5917E+01  0.7832E+01
      2.148  0.3233E+01  0.8011E+01
      2.203  0.1052E+01  0.8069E+01
      2.259 -0.1178E+00  0.8062E+01
      2.314 -0.4453E+00  0.8038E+01
      2.369 -0.3624E+00  0.8018E+01
      2.424 -0.1976E+00  0.8007E+01
      2.479 -0.8287E-01  0.8002E+01
      2.534 -0.2800E-01  0.8001E+01
      2.590 -0.7794E-02  0.8000E+01
      2.645 -0.1810E-02  0.8000E+01
      2.700 -0.3530E-03  0.8000E+01
      2.755 -0.5815E-04  0.8000E+01
      2.810 -0.8117E-05  0.8000E+01
      2.865 -0.9626E-06  0.8000E+01
      2.920 -0.9716E-07  0.8000E+01
      2.976 -0.8359E-08  0.8000E+01
      3.031 -0.6137E-09  0.8000E+01
      3.086 -0.3849E-10  0.8000E+01
      3.141 -0.2053E-11  0.8000E+01
      3.196 -0.1047E-12  0.8000E+01
      3.251  0.0000E+00  0.8000E+01
      3.307  0.0000E+00  0.8000E+01
      3.362  0.0000E+00  0.8000E+01
      3.417  0.0000E+00  0.8000E+01
      3.472  0.0000E+00  0.8000E+01
      3.527  0.0000E+00  0.8000E+01
      3.582  0.0000E+00  0.8000E+01
      3.638  0.0000E+00  0.8000E+01
      3.693  0.0000E+00  0.8000E+01
      3.748  0.0000E+00  0.8000E+01
      3.803  0.0000E+00  0.8000E+01
      3.858  0.0000E+00  0.8000E+01
      3.913  0.0000E+00  0.8000E+01
      3.969  0.0000E+00  0.8000E+01
      4.024  0.0000E+00  0.8000E+01
      4.079 -0.1077E-25  0.8000E+01
      4.134 -0.8081E-24  0.8000E+01
      4.189 -0.5261E-22  0.8000E+01
      4.244 -0.2937E-20  0.8000E+01
      4.299 -0.1406E-18  0.8000E+01
      4.355 -0.5766E-17  0.8000E+01
      4.410 -0.2027E-15  0.8000E+01
      4.465 -0.6105E-14  0.8000E+01
      4.520 -0.1535E-12  0.8000E+01
      4.575 -0.3368E-11  0.8000E+01
      4.630 -0.6343E-10  0.8000E+01
      4.686 -0.1021E-08  0.8000E+01
      4.741 -0.1405E-07  0.8000E+01
      4.796 -0.1650E-06  0.8000E+01
      4.851 -0.1651E-05  0.8000E+01
      4.906 -0.1407E-04  0.8000E+01
      4.961 -0.1019E-03  0.8000E+01
      5.017 -0.6254E-03  0.8000E+01
      5.072 -0.3243E-02  0.8000E+01
      5.127 -0.1414E-01  0.7999E+01
      5.182 -0.5143E-01  0.7996E+01
      5.237 -0.1543E+00  0.7988E+01
      5.292 -0.3741E+00  0.7967E+01
      5.348 -0.7006E+00  0.7928E+01
      5.403 -0.8945E+00  0.7879E+01
      5.458 -0.3279E+00  0.7861E+01
      5.513  0.1864E+01  0.7964E+01
      5.568  0.6091E+01  0.8300E+01
      5.623  0.1145E+02  0.8931E+01
      5.678  0.1569E+02  0.9797E+01
      5.734  0.1657E+02  0.1071E+02
      5.789  0.1359E+02  0.1146E+02
      5.844  0.8400E+01  0.1192E+02
      5.899  0.3474E+01  0.1212E+02
      5.954  0.3828E+00  0.1214E+02
      6.009 -0.7916E+00  0.1209E+02
      6.065 -0.8290E+00  0.1205E+02
      6.120 -0.5109E+00  0.1202E+02
      6.175 -0.2386E+00  0.1201E+02
      6.230 -0.1044E+00  0.1200E+02
      6.285 -0.8619E-01  0.1200E+02
      6.340 -0.1617E+00  0.1199E+02
      6.396 -0.3125E+00  0.1197E+02
      6.451 -0.4447E+00  0.1194E+02
      6.506 -0.2881E+00  0.1193E+02
      6.561  0.5846E+00  0.1196E+02
      6.616  0.2474E+01  0.1210E+02
      6.671  0.5106E+01  0.1238E+02
      6.727  0.7475E+01  0.1279E+02
      6.782  0.8372E+01  0.1325E+02
      6.837  0.7287E+01  0.1366E+02
      6.892  0.4833E+01  0.1392E+02
      6.947  0.2241E+01  0.1405E+02
      7.002  0.4532E+00  0.1407E+02
      7.058 -0.3285E+00  0.1405E+02
      7.113 -0.4380E+00  0.1403E+02
      7.168 -0.2940E+00  0.1401E+02
      7.223 -0.1429E+00  0.1400E+02
      7.278 -0.5468E-01  0.1400E+02
      7.333 -0.1705E-01  0.1400E+02
      7.388 -0.4403E-02  0.1400E+02
      7.444 -0.9519E-03  0.1400E+02
      7.499 -0.1733E-03  0.1400E+02
      7.554 -0.2668E-04  0.1400E+02
      7.609 -0.3486E-05  0.1400E+02
      7.664 -0.3871E-06  0.1400E+02
      7.719 -0.3662E-07  0.1400E+02
      7.775 -0.2954E-08  0.1400E+02
      7.830 -0.2034E-09  0.1400E+02
      7.885 -0.1196E-10  0.1400E+02
      7.940 -0.6038E-12  0.1400E+02
      7.995 -0.2415E-13  0.1400E+02
      8.050 -0.2900E-23  0.1400E+02
      8.106 -0.1759E-21  0.1400E+02
      8.161 -0.9149E-20  0.1400E+02
      8.216 -0.4079E-18  0.1400E+02
      8.271 -0.1558E-16  0.1400E+02
      8.326 -0.5101E-15  0.1400E+02
      8.381 -0.1430E-13  0.1400E+02
      8.437 -0.3333E-12  0.1400E+02
      8.492 -0.6821E-11  0.1400E+02
      8.547 -0.1195E-09  0.1400E+02
      8.602 -0.1788E-08  0.1400E+02
      8.657 -0.2286E-07  0.1400E+02
      8.712 -0.2492E-06  0.1400E+02
      8.767 -0.2314E-05  0.1400E+02
      8.823 -0.1828E-04  0.1400E+02
      8.878 -0.1226E-03  0.1400E+02
      8.933 -0.6954E-03  0.1400E+02
      8.988 -0.3326E-02  0.1400E+02
      9.043 -0.1333E-01  0.1400E+02
      9.098 -0.4438E-01  0.1400E+02
      9.154 -0.1209E+00  0.1399E+02
      9.209 -0.2615E+00  0.1398E+02
      9.264 -0.4195E+00  0.1395E+02
      9.319 -0.3875E+00  0.1393E+02
      9.374  0.2307E+00  0.1394E+02
      9.429  0.1818E+01  0.1404E+02
      9.485  0.4308E+01  0.1428E+02
      9.540  0.6887E+01  0.1466E+02
      9.595  0.8313E+01  0.1512E+02
      9.650  0.7792E+01  0.1555E+02
      9.705  0.5621E+01  0.1586E+02
      9.760  0.2944E+01  0.1602E+02
      9.816  0.8665E+00  0.1607E+02
      9.871 -0.1897E+00  0.1606E+02
      9.926 -0.4487E+00  0.1603E+02
      9.981 -0.3438E+00  0.1602E+02
     10.036 -0.1812E+00  0.1601E+02
     10.091 -0.7403E-01  0.1600E+02
     10.146 -0.2445E-01  0.1600E+02
     10.202 -0.6664E-02  0.1600E+02
     10.257 -0.1516E-02  0.1600E+02
     10.312 -0.2901E-03  0.1600E+02
     10.367 -0.4690E-04  0.1600E+02
     10.422 -0.6426E-05  0.1600E+02
     10.477 -0.7482E-06  0.1600E+02
     10.533 -0.7416E-07  0.1600E+02
     10.588 -0.6266E-08  0.1600E+02
     10.643 -0.4519E-09  0.1600E+02
     10.698 -0.2783E-10  0.1600E+02
     10.753 -0.1465E-11  0.1600E+02
     10.808 -0.7246E-13  0.1600E+02
     10.864  0.0000E+00  0.1600E+02
     10.919  0.0000E+00  0.1600E+02
     10.974  0.0000E+00  0.1600E+02
     11.029  0.0000E+00  0.1600E+02
     11.084  0.0000E+00  0.1600E+02
     11.139  0.0000E+00  0.1600E+02
     11.195  0.0000E+00  0.1600E+02
     11.250  0.0000E+00  0.1600E+02
     11.305  0.0000E+00  0.1600E+02
     11.360  0.0000E+00  0.1600E+02
     11.415  0.0000E+00  0.1600E+02
     11.470  0.0000E+00  0.1600E+02
     11.526  0.0000E+00  0.1600E+02
     11.581  0.0000E+00  0.1600E+02
