       N       E                     dE             d eps       ncg     rms          rms(c)
DAV:   1    -0.105548752500E+02   -0.10555E+02   -0.37651E-01    16   0.557E+00    0.151E+00
DAV:   2    -0.104956021335E+02    0.59273E-01   -0.83016E-02    16   0.161E+00    0.903E-01
DAV:   3    -0.104745972334E+02    0.21005E-01   -0.10993E-01    16   0.167E+00    0.157E-01
DAV:   4    -0.104749244219E+02   -0.32719E-03   -0.68674E-03    16   0.528E-01    0.263E-02
DAV:   5    -0.104748726322E+02    0.51790E-04   -0.42613E-04    16   0.119E-01    0.135E-02
DAV:   6    -0.104748862680E+02   -0.13636E-04   -0.35075E-05    16   0.471E-02    0.209E-03
DAV:   7    -0.104748855345E+02    0.73348E-06   -0.10108E-06     8   0.725E-03
   1 F= -.10474886E+02 E0= -.10447378E+02  d E =-.825229E-01
       N       E                     dE             d eps       ncg     rms          rms(c)
DAV:   1    -0.104749981211E+02   -0.11185E-03   -0.11863E-02    16   0.784E-01    0.459E-02
DAV:   2    -0.104749340539E+02    0.64067E-04   -0.34273E-04    32   0.142E-01    0.167E-02
DAV:   3    -0.104749240885E+02    0.99654E-05   -0.42170E-05    24   0.313E-02    0.386E-03
DAV:   4    -0.104749246303E+02   -0.54180E-06   -0.20442E-06    32   0.116E-02
   2 F= -.10474925E+02 E0= -.10447447E+02  d E =-.824316E-01
       N       E                     dE             d eps       ncg     rms          rms(c)
DAV:   1    -0.104752202870E+02   -0.29620E-03   -0.55114E-02    16   0.158E+00    0.918E-02
DAV:   2    -0.104749619675E+02    0.25832E-03   -0.13597E-03    24   0.282E-01    0.333E-02
DAV:   3    -0.104749220163E+02    0.39951E-04   -0.16835E-04    24   0.627E-02    0.766E-03
DAV:   4    -0.104749241308E+02   -0.21145E-05   -0.78035E-06    32   0.229E-02    0.406E-03
DAV:   5    -0.104749248087E+02   -0.67790E-06   -0.53141E-07    16   0.626E-03
   3 F= -.10474925E+02 E0= -.10447448E+02  d E =-.824316E-01
