   3   3   0   0
  0.1429167E+02  0.3500000E-09  0.3500000E-09  0.3500000E-09  0.5000000E-15
  1.000000000000000E-004
  CAR 
 unknown system                          
     18.28480514     -2.84250937  301     10.45968491      1.00000000
     -2.843  0.0000E+00  0.0000E+00
     -2.772  0.0000E+00  0.0000E+00
     -2.702  0.0000E+00  0.0000E+00
     -2.631  0.0000E+00  0.0000E+00
     -2.561  0.0000E+00  0.0000E+00
     -2.490 -0.1136E-29 -0.8000E-31
     -2.420 -0.3170E-27 -0.2240E-28
     -2.350 -0.6906E-25 -0.4886E-26
     -2.279 -0.1171E-22 -0.8297E-24
     -2.209 -0.1546E-20 -0.1097E-21
     -2.138 -0.1587E-18 -0.1129E-19
     -2.068 -0.1267E-16 -0.9036E-18
     -1.997 -0.7614E-15 -0.5452E-16
     -1.927 -0.3661E-13 -0.2633E-14
     -1.857 -0.1362E-11 -0.9857E-13
     -1.786 -0.3925E-10 -0.2862E-11
     -1.716 -0.8740E-09 -0.6441E-10
     -1.645 -0.1501E-07 -0.1121E-08
     -1.575 -0.1981E-06 -0.1507E-07
     -1.504 -0.2001E-05 -0.1560E-06
     -1.434 -0.1536E-04 -0.1237E-05
     -1.364 -0.8855E-04 -0.7473E-05
     -1.293 -0.3763E-03 -0.3397E-04
     -1.223 -0.1132E-02 -0.1137E-03
     -1.152 -0.2166E-02 -0.2662E-03
     -1.082 -0.1474E-02 -0.3700E-03
     -1.011  0.5158E-02 -0.6746E-05
     -0.941  0.2001E-01  0.1402E-02
     -0.871  0.3693E-01  0.4003E-02
     -0.800  0.4347E-01  0.7064E-02
     -0.730  0.3396E-01  0.9456E-02
     -0.659  0.1650E-01  0.1062E-01
     -0.589  0.3145E-02  0.1084E-01
     -0.519 -0.1940E-02  0.1070E-01
     -0.448 -0.1993E-02  0.1056E-01
     -0.378 -0.9352E-03  0.1050E-01
     -0.307 -0.2885E-03  0.1048E-01
     -0.237 -0.6371E-04  0.1047E-01
     -0.166 -0.1042E-04  0.1047E-01
     -0.096 -0.1283E-05  0.1047E-01
     -0.026 -0.1203E-06  0.1047E-01
      0.045 -0.8643E-08  0.1047E-01
      0.115 -0.4775E-09  0.1047E-01
      0.186 -0.2036E-10  0.1047E-01
      0.256 -0.6710E-12  0.1047E-01
      0.327 -0.1710E-13  0.1047E-01
      0.397 -0.3632E-15  0.1047E-01
      0.467  0.0000E+00  0.1047E-01
      0.538  0.0000E+00  0.1047E-01
      0.608  0.0000E+00  0.1047E-01
      0.679  0.0000E+00  0.1047E-01
      0.749  0.0000E+00  0.1047E-01
      0.820  0.0000E+00  0.1047E-01
      0.890  0.0000E+00  0.1047E-01
      0.960  0.0000E+00  0.1047E-01
      1.031  0.0000E+00  0.1047E-01
      1.101  0.0000E+00  0.1047E-01
      1.172  0.0000E+00  0.1047E-01
      1.242  0.0000E+00  0.1047E-01
      1.313  0.0000E+00  0.1047E-01
      1.383  0.0000E+00  0.1047E-01
      1.453  0.0000E+00  0.1047E-01
      1.524  0.0000E+00  0.1047E-01
      1.594  0.0000E+00  0.1047E-01
      1.665  0.0000E+00  0.1047E-01
      1.735  0.0000E+00  0.1047E-01
      1.805  0.0000E+00  0.1047E-01
      1.876  0.0000E+00  0.1047E-01
      1.946  0.0000E+00  0.1047E-01
      2.017  0.0000E+00  0.1047E-01
      2.087  0.0000E+00  0.1047E-01
      2.158  0.0000E+00  0.1047E-01
      2.228  0.0000E+00  0.1047E-01
      2.298  0.0000E+00  0.1047E-01
      2.369  0.0000E+00  0.1047E-01
      2.439  0.0000E+00  0.1047E-01
      2.510  0.0000E+00  0.1047E-01
      2.580  0.0000E+00  0.1047E-01
      2.651  0.0000E+00  0.1047E-01
      2.721  0.0000E+00  0.1047E-01
      2.791  0.0000E+00  0.1047E-01
      2.862  0.0000E+00  0.1047E-01
      2.932  0.0000E+00  0.1047E-01
      3.003  0.0000E+00  0.1047E-01
      3.073  0.0000E+00  0.1047E-01
      3.144  0.0000E+00  0.1047E-01
      3.214  0.0000E+00  0.1047E-01
      3.284 -0.4842E-29  0.1047E-01
      3.355 -0.1268E-26  0.1047E-01
      3.425 -0.2593E-24  0.1047E-01
      3.496 -0.4127E-22  0.1047E-01
      3.566 -0.5111E-20  0.1047E-01
      3.637 -0.4924E-18  0.1047E-01
      3.707 -0.3688E-16  0.1047E-01
      3.777 -0.2081E-14  0.1047E-01
      3.848 -0.9366E-13  0.1047E-01
      3.918 -0.3267E-11  0.1047E-01
      3.989 -0.8821E-10  0.1047E-01
      4.059 -0.1840E-08  0.1047E-01
      4.130 -0.2957E-07  0.1047E-01
      4.200 -0.3650E-06  0.1047E-01
      4.270 -0.3442E-05  0.1047E-01
      4.341 -0.2462E-04  0.1047E-01
      4.411 -0.1319E-03  0.1046E-01
      4.482 -0.5181E-03  0.1042E-01
      4.552 -0.1428E-02  0.1032E-01
      4.622 -0.2443E-02  0.1015E-01
      4.693 -0.1194E-02  0.1007E-01
      4.763  0.6147E-02  0.1050E-01
      4.834  0.2039E-01  0.1194E-01
      4.904  0.3654E-01  0.1451E-01
      4.975  0.5061E-01  0.1807E-01
      5.045  0.6612E-01  0.2273E-01
      5.115  0.8328E-01  0.2859E-01
      5.186  0.8824E-01  0.3481E-01
      5.256  0.6885E-01  0.3966E-01
      5.327  0.3486E-01  0.4211E-01
      5.397  0.7559E-02  0.4264E-01
      5.468 -0.3657E-02  0.4239E-01
      5.538 -0.4218E-02  0.4209E-01
      5.608 -0.2075E-02  0.4194E-01
      5.679 -0.6637E-03  0.4190E-01
      5.749 -0.1513E-03  0.4189E-01
      5.820 -0.2550E-04  0.4189E-01
      5.890 -0.3234E-05  0.4188E-01
      5.961 -0.3118E-06  0.4188E-01
      6.031 -0.2302E-07  0.4188E-01
      6.101 -0.1307E-08  0.4188E-01
      6.172 -0.5723E-10  0.4188E-01
      6.242 -0.1937E-11  0.4188E-01
      6.313 -0.5078E-13  0.4188E-01
      6.383 -0.1056E-14  0.4188E-01
      6.454  0.0000E+00  0.4188E-01
      6.524  0.0000E+00  0.4188E-01
      6.594  0.0000E+00  0.4188E-01
      6.665  0.0000E+00  0.4188E-01
      6.735  0.0000E+00  0.4188E-01
      6.806  0.0000E+00  0.4188E-01
      6.876  0.0000E+00  0.4188E-01
      6.946  0.0000E+00  0.4188E-01
      7.017  0.0000E+00  0.4188E-01
      7.087  0.0000E+00  0.4188E-01
      7.158  0.0000E+00  0.4188E-01
      7.228  0.0000E+00  0.4188E-01
      7.299  0.0000E+00  0.4188E-01
      7.369  0.0000E+00  0.4188E-01
      7.439  0.0000E+00  0.4188E-01
      7.510  0.0000E+00  0.4188E-01
      7.580  0.0000E+00  0.4188E-01
      7.651  0.0000E+00  0.4188E-01
      7.721  0.0000E+00  0.4188E-01
      7.792  0.0000E+00  0.4188E-01
      7.862  0.0000E+00  0.4188E-01
      7.932  0.0000E+00  0.4188E-01
      8.003  0.0000E+00  0.4188E-01
      8.073  0.0000E+00  0.4188E-01
      8.144  0.0000E+00  0.4188E-01
      8.214  0.0000E+00  0.4188E-01
      8.285  0.0000E+00  0.4188E-01
      8.355  0.0000E+00  0.4188E-01
      8.425  0.0000E+00  0.4188E-01
      8.496  0.0000E+00  0.4188E-01
      8.566  0.0000E+00  0.4188E-01
      8.637  0.0000E+00  0.4188E-01
      8.707  0.0000E+00  0.4188E-01
      8.778  0.0000E+00  0.4188E-01
      8.848  0.0000E+00  0.4188E-01
      8.918 -0.8065E-28  0.4188E-01
      8.989 -0.1922E-25  0.4188E-01
      9.059 -0.3578E-23  0.4188E-01
      9.130 -0.5184E-21  0.4188E-01
      9.200 -0.5844E-19  0.4188E-01
      9.270 -0.5123E-17  0.4188E-01
      9.341 -0.3326E-15  0.4188E-01
      9.411 -0.1790E-13  0.4188E-01
      9.482 -0.7318E-12  0.4188E-01
      9.552 -0.2319E-10  0.4188E-01
      9.623 -0.5685E-09  0.4188E-01
      9.693 -0.1076E-07  0.4188E-01
      9.763 -0.1566E-06  0.4188E-01
      9.834 -0.1749E-05  0.4188E-01
      9.904 -0.1488E-04  0.4188E-01
      9.975 -0.9556E-04  0.4188E-01
     10.045 -0.4563E-03  0.4184E-01
     10.116 -0.1572E-02  0.4173E-01
     10.186 -0.3637E-02  0.4148E-01
     10.256 -0.4345E-02  0.4117E-01
     10.327  0.3455E-02  0.4142E-01
     10.397  0.2739E-01  0.4334E-01
     10.468  0.6236E-01  0.4774E-01
     10.538  0.8583E-01  0.5378E-01
     10.609  0.7820E-01  0.5929E-01
     10.679  0.4613E-01  0.6254E-01
     10.749  0.1429E-01  0.6354E-01
     10.820 -0.1794E-02  0.6342E-01
     10.890 -0.4601E-02  0.6309E-01
     10.961 -0.2936E-02  0.6288E-01
     11.031 -0.1924E-02  0.6275E-01
     11.102 -0.2281E-02  0.6259E-01
     11.172 -0.1865E-02  0.6246E-01
     11.242  0.3707E-02  0.6272E-01
     11.313  0.1754E-01  0.6395E-01
     11.383  0.3489E-01  0.6641E-01
     11.454  0.4354E-01  0.6948E-01
     11.524  0.3608E-01  0.7202E-01
     11.594  0.1894E-01  0.7335E-01
     11.665  0.4513E-02  0.7367E-01
     11.735 -0.1638E-02  0.7355E-01
     11.806 -0.2119E-02  0.7341E-01
     11.876 -0.1071E-02  0.7333E-01
     11.947 -0.3478E-03  0.7331E-01
     12.017 -0.8029E-04  0.7330E-01
     12.087 -0.1368E-04  0.7330E-01
     12.158 -0.1753E-05  0.7330E-01
     12.228 -0.1707E-06  0.7330E-01
     12.299 -0.1273E-07  0.7330E-01
     12.369 -0.7294E-09  0.7330E-01
     12.440 -0.3224E-10  0.7330E-01
     12.510 -0.1102E-11  0.7330E-01
     12.580 -0.2919E-13  0.7330E-01
     12.651 -0.5943E-15  0.7330E-01
     12.721  0.0000E+00  0.7330E-01
     12.792  0.0000E+00  0.7330E-01
     12.862  0.0000E+00  0.7330E-01
     12.933  0.0000E+00  0.7330E-01
     13.003  0.0000E+00  0.7330E-01
     13.073  0.0000E+00  0.7330E-01
     13.144  0.0000E+00  0.7330E-01
     13.214  0.0000E+00  0.7330E-01
     13.285  0.0000E+00  0.7330E-01
     13.355  0.0000E+00  0.7330E-01
     13.426  0.0000E+00  0.7330E-01
     13.496  0.0000E+00  0.7330E-01
     13.566  0.0000E+00  0.7330E-01
     13.637  0.0000E+00  0.7330E-01
     13.707  0.0000E+00  0.7330E-01
     13.778  0.0000E+00  0.7330E-01
     13.848  0.0000E+00  0.7330E-01
     13.918  0.0000E+00  0.7330E-01
     13.989  0.0000E+00  0.7330E-01
     14.059  0.0000E+00  0.7330E-01
     14.130  0.0000E+00  0.7330E-01
     14.200  0.0000E+00  0.7330E-01
     14.271  0.0000E+00  0.7330E-01
     14.341  0.0000E+00  0.7330E-01
     14.411  0.0000E+00  0.7330E-01
     14.482  0.0000E+00  0.7330E-01
     14.552  0.0000E+00  0.7330E-01
     14.623 -0.3541E-30  0.7330E-01
     14.693 -0.1039E-27  0.7330E-01
     14.764 -0.2381E-25  0.7330E-01
     14.834 -0.4248E-23  0.7330E-01
     14.904 -0.5897E-21  0.7330E-01
     14.975 -0.6369E-19  0.7330E-01
     15.045 -0.5349E-17  0.7330E-01
     15.116 -0.3410E-15  0.7330E-01
     15.186 -0.1713E-13  0.7330E-01
     15.257 -0.6710E-12  0.7330E-01
     15.327 -0.2036E-10  0.7330E-01
     15.397 -0.4775E-09  0.7330E-01
     15.468 -0.8643E-08  0.7330E-01
     15.538 -0.1203E-06  0.7330E-01
     15.609 -0.1283E-05  0.7330E-01
     15.679 -0.1042E-04  0.7330E-01
     15.750 -0.6371E-04  0.7329E-01
     15.820 -0.2885E-03  0.7327E-01
     15.890 -0.9352E-03  0.7321E-01
     15.961 -0.1993E-02  0.7307E-01
     16.031 -0.1940E-02  0.7293E-01
     16.102  0.3145E-02  0.7315E-01
     16.172  0.1650E-01  0.7431E-01
     16.242  0.3396E-01  0.7671E-01
     16.313  0.4347E-01  0.7977E-01
     16.383  0.3693E-01  0.8237E-01
     16.454  0.2001E-01  0.8378E-01
     16.524  0.5158E-02  0.8414E-01
     16.595 -0.1474E-02  0.8404E-01
     16.665 -0.2166E-02  0.8388E-01
     16.735 -0.1132E-02  0.8380E-01
     16.806 -0.3763E-03  0.8378E-01
     16.876 -0.8855E-04  0.8377E-01
     16.947 -0.1536E-04  0.8377E-01
     17.017 -0.2001E-05  0.8377E-01
     17.088 -0.1981E-06  0.8377E-01
     17.158 -0.1501E-07  0.8377E-01
     17.228 -0.8740E-09  0.8377E-01
     17.299 -0.3925E-10  0.8377E-01
     17.369 -0.1362E-11  0.8377E-01
     17.440 -0.3665E-13  0.8377E-01
     17.510 -0.7593E-15  0.8377E-01
     17.581  0.0000E+00  0.8377E-01
     17.651  0.0000E+00  0.8377E-01
     17.721  0.0000E+00  0.8377E-01
     17.792  0.0000E+00  0.8377E-01
     17.862  0.0000E+00  0.8377E-01
     17.933  0.0000E+00  0.8377E-01
     18.003  0.0000E+00  0.8377E-01
     18.074  0.0000E+00  0.8377E-01
     18.144  0.0000E+00  0.8377E-01
     18.214  0.0000E+00  0.8377E-01
     18.285  0.0000E+00  0.8377E-01
