  32  32   0   0
  0.1652794E+02  0.8087040E-09  0.8087040E-09  0.8087040E-09  0.5000000E-15
  1.000000000000000E-004
  CAR 
 unknown system                          
     16.64279947     -4.71332578  301      8.12779049      1.00000000
     -4.713  0.0000E+00  0.0000E+00
     -4.642  0.0000E+00  0.0000E+00
     -4.571  0.0000E+00  0.0000E+00
     -4.500  0.0000E+00  0.0000E+00
     -4.429  0.0000E+00  0.0000E+00
     -4.357 -0.2931E-27 -0.2087E-28
     -4.286 -0.8565E-25 -0.6118E-26
     -4.215 -0.1943E-22 -0.1389E-23
     -4.144 -0.3413E-20 -0.2444E-21
     -4.073 -0.4640E-18 -0.3328E-19
     -4.001 -0.4880E-16 -0.3507E-17
     -3.930 -0.3969E-14 -0.2861E-15
     -3.859 -0.2417E-12 -0.1749E-13
     -3.788 -0.1170E-10 -0.8504E-12
     -3.717 -0.4361E-09 -0.3189E-10
     -3.646 -0.1251E-07 -0.9226E-09
     -3.574 -0.2759E-06 -0.2056E-07
     -3.503 -0.4661E-05 -0.3524E-06
     -3.432 -0.6016E-04 -0.4635E-05
     -3.361 -0.5900E-03 -0.4664E-04
     -3.290 -0.4362E-02 -0.3572E-03
     -3.218 -0.2401E-01 -0.2066E-02
     -3.147 -0.9609E-01 -0.8907E-02
     -3.076 -0.2659E+00 -0.2784E-01
     -3.005 -0.4377E+00 -0.5899E-01
     -2.934 -0.9037E-01 -0.6543E-01
     -2.862  0.1627E+01  0.5037E-01
     -2.791  0.4808E+01  0.3926E+00
     -2.720  0.7729E+01  0.9428E+00
     -2.649  0.8039E+01  0.1515E+01
     -2.578  0.5462E+01  0.1904E+01
     -2.507  0.2144E+01  0.2057E+01
     -2.435  0.1076E+00  0.2064E+01
     -2.364 -0.4366E+00  0.2033E+01
     -2.293 -0.3071E+00  0.2011E+01
     -2.222 -0.1230E+00  0.2003E+01
     -2.151 -0.5122E-01  0.1999E+01
     -2.079 -0.1051E+00  0.1991E+01
     -2.008 -0.3696E+00  0.1965E+01
     -1.937 -0.9330E+00  0.1899E+01
     -1.866 -0.1306E+01  0.1806E+01
     -1.795  0.3921E+00  0.1834E+01
     -1.723  0.6599E+01  0.2303E+01
     -1.652  0.1658E+02  0.3484E+01
     -1.581  0.2419E+02  0.5206E+01
     -1.510  0.2308E+02  0.6849E+01
     -1.439  0.1422E+02  0.7861E+01
     -1.368  0.4732E+01  0.8198E+01
     -1.296 -0.3223E+00  0.8175E+01
     -1.225 -0.1310E+01  0.8082E+01
     -1.154 -0.7862E+00  0.8026E+01
     -1.083 -0.2870E+00  0.8006E+01
     -1.012 -0.1042E+00  0.7998E+01
     -0.940 -0.1720E+00  0.7986E+01
     -0.869 -0.5288E+00  0.7948E+01
     -0.798 -0.1138E+01  0.7867E+01
     -0.727 -0.1104E+01  0.7789E+01
     -0.656  0.1887E+01  0.7923E+01
     -0.584  0.9714E+01  0.8614E+01
     -0.513  0.1978E+02  0.1002E+02
     -0.442  0.2493E+02  0.1180E+02
     -0.371  0.2068E+02  0.1327E+02
     -0.300  0.1077E+02  0.1404E+02
     -0.229  0.2476E+01  0.1421E+02
     -0.157 -0.9783E+00  0.1414E+02
     -0.086 -0.1194E+01  0.1406E+02
     -0.015 -0.5867E+00  0.1402E+02
      0.056 -0.2013E+00  0.1400E+02
      0.127 -0.1376E+00  0.1399E+02
      0.199 -0.3932E+00  0.1396E+02
      0.270 -0.1068E+01  0.1389E+02
      0.341 -0.1751E+01  0.1376E+02
      0.412 -0.3449E+00  0.1374E+02
      0.483  0.6553E+01  0.1421E+02
      0.555  0.1929E+02  0.1558E+02
      0.626  0.3095E+02  0.1778E+02
      0.697  0.3213E+02  0.2007E+02
      0.768  0.2179E+02  0.2162E+02
      0.839  0.8526E+01  0.2223E+02
      0.910  0.4091E+00  0.2226E+02
      0.982 -0.1747E+01  0.2213E+02
      1.053 -0.1225E+01  0.2205E+02
      1.124 -0.4902E+00  0.2201E+02
      1.195 -0.2009E+00  0.2200E+02
      1.266 -0.3617E+00  0.2197E+02
      1.338 -0.1102E+01  0.2189E+02
      1.409 -0.2322E+01  0.2173E+02
      1.480 -0.2118E+01  0.2158E+02
      1.551  0.4222E+01  0.2188E+02
      1.622  0.2025E+02  0.2332E+02
      1.694  0.4029E+02  0.2619E+02
      1.765  0.4989E+02  0.2974E+02
      1.836  0.4068E+02  0.3263E+02
      1.907  0.2070E+02  0.3411E+02
      1.978  0.4475E+01  0.3442E+02
      2.049 -0.2064E+01  0.3428E+02
      2.121 -0.2346E+01  0.3411E+02
      2.192 -0.1126E+01  0.3403E+02
      2.263 -0.3699E+00  0.3400E+02
      2.334 -0.1880E+00  0.3399E+02
      2.405 -0.4165E+00  0.3396E+02
      2.477 -0.9871E+00  0.3389E+02
      2.548 -0.1281E+01  0.3380E+02
      2.619  0.7076E+00  0.3385E+02
      2.690  0.7326E+01  0.3437E+02
      2.761  0.1740E+02  0.3561E+02
      2.833  0.2448E+02  0.3735E+02
      2.904  0.2256E+02  0.3896E+02
      2.975  0.1337E+02  0.3991E+02
      3.046  0.4124E+01  0.4020E+02
      3.117 -0.5232E+00  0.4017E+02
      3.188 -0.1294E+01  0.4008E+02
      3.260 -0.7427E+00  0.4002E+02
      3.331 -0.3110E+00  0.4000E+02
      3.402 -0.3299E+00  0.3998E+02
      3.473 -0.9255E+00  0.3991E+02
      3.544 -0.2074E+01  0.3976E+02
      3.616 -0.2320E+01  0.3960E+02
      3.687  0.2519E+01  0.3978E+02
      3.758  0.1659E+02  0.4096E+02
      3.829  0.3641E+02  0.4355E+02
      3.900  0.4885E+02  0.4703E+02
      3.971  0.4341E+02  0.5012E+02
      4.043  0.2483E+02  0.5189E+02
      4.114  0.7252E+01  0.5240E+02
      4.185 -0.1218E+01  0.5232E+02
      4.256 -0.2468E+01  0.5214E+02
      4.327 -0.1381E+01  0.5204E+02
      4.399 -0.5602E+00  0.5200E+02
      4.470 -0.5330E+00  0.5196E+02
      4.541 -0.1410E+01  0.5186E+02
      4.612 -0.3050E+01  0.5165E+02
      4.683 -0.3192E+01  0.5142E+02
      4.755  0.4225E+01  0.5172E+02
      4.826  0.2487E+02  0.5349E+02
      4.897  0.5347E+02  0.5730E+02
      4.968  0.7151E+02  0.6239E+02
      5.039  0.6427E+02  0.6696E+02
      5.110  0.3799E+02  0.6967E+02
      5.182  0.1225E+02  0.7054E+02
      5.253 -0.9431E+00  0.7047E+02
      5.324 -0.3481E+01  0.7022E+02
      5.395 -0.2120E+01  0.7007E+02
      5.466 -0.8092E+00  0.7002E+02
      5.538 -0.3362E+00  0.6999E+02
      5.609 -0.5016E+00  0.6996E+02
      5.680 -0.1070E+01  0.6988E+02
      5.751 -0.1213E+01  0.6979E+02
      5.822  0.1257E+01  0.6988E+02
      5.894  0.8493E+01  0.7049E+02
      5.965  0.1863E+02  0.7181E+02
      6.036  0.2479E+02  0.7358E+02
      6.107  0.2168E+02  0.7512E+02
      6.178  0.1206E+02  0.7598E+02
      6.249  0.3258E+01  0.7621E+02
      6.321 -0.7797E+00  0.7616E+02
      6.392 -0.1252E+01  0.7607E+02
      6.463 -0.6727E+00  0.7602E+02
      6.534 -0.3106E+00  0.7600E+02
      6.605 -0.4679E+00  0.7596E+02
      6.677 -0.1327E+01  0.7587E+02
      6.748 -0.2679E+01  0.7568E+02
      6.819 -0.2197E+01  0.7552E+02
      6.890  0.5486E+01  0.7591E+02
      6.961  0.2403E+02  0.7762E+02
      7.033  0.4661E+02  0.8094E+02
      7.104  0.5713E+02  0.8501E+02
      7.175  0.4665E+02  0.8833E+02
      7.246  0.2422E+02  0.9005E+02
      7.317  0.5770E+01  0.9046E+02
      7.388 -0.2000E+01  0.9032E+02
      7.460 -0.2623E+01  0.9013E+02
      7.531 -0.1349E+01  0.9004E+02
      7.602 -0.5367E+00  0.9000E+02
      7.673 -0.5335E+00  0.8996E+02
      7.744 -0.1330E+01  0.8987E+02
      7.816 -0.2527E+01  0.8969E+02
      7.887 -0.1718E+01  0.8957E+02
      7.958  0.5967E+01  0.8999E+02
      8.029  0.2291E+02  0.9162E+02
      8.100  0.4208E+02  0.9462E+02
      8.172  0.5096E+02  0.9824E+02
      8.243  0.4607E+02  0.1015E+03
      8.314  0.3594E+02  0.1041E+03
      8.385  0.2739E+02  0.1060E+03
      8.456  0.1909E+02  0.1074E+03
      8.527  0.9681E+01  0.1081E+03
      8.599  0.2177E+01  0.1082E+03
      8.670 -0.1090E+01  0.1082E+03
      8.741 -0.1297E+01  0.1081E+03
      8.812 -0.6576E+00  0.1080E+03
      8.883 -0.2502E+00  0.1080E+03
      8.955 -0.2484E+00  0.1080E+03
      9.026 -0.7513E+00  0.1079E+03
      9.097 -0.1876E+01  0.1078E+03
      9.168 -0.2608E+01  0.1076E+03
      9.239  0.8343E+00  0.1077E+03
      9.311  0.1332E+02  0.1086E+03
      9.382  0.3330E+02  0.1110E+03
      9.453  0.4844E+02  0.1144E+03
      9.524  0.4607E+02  0.1177E+03
      9.595  0.2829E+02  0.1197E+03
      9.666  0.9301E+01  0.1204E+03
      9.738 -0.9632E+00  0.1203E+03
      9.809 -0.3577E+01  0.1201E+03
      9.880 -0.3713E+01  0.1198E+03
      9.951 -0.2893E+01  0.1196E+03
     10.022  0.2658E+01  0.1198E+03
     10.094  0.1718E+02  0.1210E+03
     10.165  0.3671E+02  0.1236E+03
     10.236  0.4806E+02  0.1270E+03
     10.307  0.4288E+02  0.1301E+03
     10.378  0.2944E+02  0.1322E+03
     10.450  0.2195E+02  0.1338E+03
     10.521  0.2224E+02  0.1353E+03
     10.592  0.2114E+02  0.1368E+03
     10.663  0.1389E+02  0.1378E+03
     10.734  0.4920E+01  0.1382E+03
     10.805 -0.6109E+00  0.1381E+03
     10.877 -0.2394E+01  0.1380E+03
     10.948 -0.2071E+01  0.1378E+03
     11.019  0.8739E+00  0.1379E+03
     11.090  0.8206E+01  0.1385E+03
     11.161  0.1806E+02  0.1398E+03
     11.233  0.2340E+02  0.1414E+03
     11.304  0.1923E+02  0.1428E+03
     11.375  0.1074E+02  0.1436E+03
     11.446  0.1034E+02  0.1443E+03
     11.517  0.2413E+02  0.1460E+03
     11.589  0.4265E+02  0.1490E+03
     11.660  0.4876E+02  0.1525E+03
     11.731  0.3632E+02  0.1551E+03
     11.802  0.1623E+02  0.1563E+03
     11.873  0.2161E+01  0.1564E+03
     11.944 -0.2483E+01  0.1562E+03
     12.016 -0.2135E+01  0.1561E+03
     12.087 -0.1147E+01  0.1560E+03
     12.158 -0.1151E+01  0.1559E+03
     12.229 -0.2144E+01  0.1558E+03
     12.300 -0.2472E+01  0.1556E+03
     12.372  0.2242E+01  0.1557E+03
     12.443  0.1643E+02  0.1569E+03
     12.514  0.3669E+02  0.1595E+03
     12.585  0.4946E+02  0.1631E+03
     12.656  0.4379E+02  0.1662E+03
     12.728  0.2470E+02  0.1679E+03
     12.799  0.6807E+01  0.1684E+03
     12.870 -0.1818E+01  0.1683E+03
     12.941 -0.3457E+01  0.1680E+03
     13.012 -0.2676E+01  0.1678E+03
     13.083 -0.1759E+00  0.1678E+03
     13.155  0.6079E+01  0.1683E+03
     13.226  0.1557E+02  0.1694E+03
     13.297  0.2288E+02  0.1710E+03
     13.368  0.2358E+02  0.1727E+03
     13.439  0.2103E+02  0.1742E+03
     13.511  0.2131E+02  0.1757E+03
     13.582  0.2313E+02  0.1773E+03
     13.653  0.2028E+02  0.1788E+03
     13.724  0.1313E+02  0.1797E+03
     13.795  0.9836E+01  0.1804E+03
     13.867  0.1490E+02  0.1815E+03
     13.938  0.2235E+02  0.1831E+03
     14.009  0.2294E+02  0.1847E+03
     14.080  0.1515E+02  0.1858E+03
     14.151  0.5461E+01  0.1862E+03
     14.222 -0.4812E+00  0.1861E+03
     14.294 -0.2404E+01  0.1860E+03
     14.365 -0.1993E+01  0.1858E+03
     14.436  0.1236E+01  0.1859E+03
     14.507  0.8885E+01  0.1865E+03
     14.578  0.1893E+02  0.1879E+03
     14.650  0.2466E+02  0.1896E+03
     14.721  0.2122E+02  0.1912E+03
     14.792  0.1164E+02  0.1920E+03
     14.863  0.3082E+01  0.1922E+03
     14.934 -0.7842E+00  0.1922E+03
     15.005 -0.1215E+01  0.1921E+03
     15.077 -0.6365E+00  0.1920E+03
     15.148 -0.2105E+00  0.1920E+03
     15.219 -0.4908E-01  0.1920E+03
     15.290 -0.8403E-02  0.1920E+03
     15.361 -0.1078E-02  0.1920E+03
     15.433 -0.1047E-03  0.1920E+03
     15.504 -0.7761E-05  0.1920E+03
     15.575 -0.4409E-06  0.1920E+03
     15.646 -0.1925E-07  0.1920E+03
     15.717 -0.6480E-09  0.1920E+03
     15.789 -0.1682E-10  0.1920E+03
     15.860 -0.3431E-12  0.1920E+03
     15.931 -0.6238E-14  0.1920E+03
     16.002  0.0000E+00  0.1920E+03
     16.073  0.0000E+00  0.1920E+03
     16.144  0.0000E+00  0.1920E+03
     16.216  0.0000E+00  0.1920E+03
     16.287  0.0000E+00  0.1920E+03
     16.358  0.0000E+00  0.1920E+03
     16.429  0.0000E+00  0.1920E+03
     16.500  0.0000E+00  0.1920E+03
     16.572  0.0000E+00  0.1920E+03
     16.643  0.0000E+00  0.1920E+03
