       N       E                     dE             d eps       ncg     rms          rms(c)
DAV:   1     0.129973065597E+03    0.12997E+03   -0.75914E+03    32   0.121E+03
DAV:   2    -0.139338075151E+02   -0.14391E+03   -0.13791E+03    32   0.307E+02
DAV:   3    -0.244712685674E+02   -0.10537E+02   -0.10379E+02    56   0.756E+01
DAV:   4    -0.246406941812E+02   -0.16943E+00   -0.16913E+00    40   0.128E+01
DAV:   5    -0.246444441070E+02   -0.37499E-02   -0.37497E-02    48   0.115E+00    0.730E+00
DAV:   6    -0.238282553277E+02    0.81619E+00   -0.28939E+00    32   0.264E+01    0.367E+00
DAV:   7    -0.239075704803E+02   -0.79315E-01   -0.46508E-02    32   0.358E+00    0.194E+00
DAV:   8    -0.239538892315E+02   -0.46319E-01   -0.21217E-02    40   0.197E+00    0.907E-02
DAV:   9    -0.239540109619E+02   -0.12173E-03   -0.11593E-03    24   0.463E-01    0.427E-02
DAV:  10    -0.239540889709E+02   -0.78009E-04   -0.15418E-04    16   0.184E-01
   1 F= -.23954089E+02 E0= -.23962828E+02  d E =-.239541E+02
