ITEM: TIMESTEP
320
ITEM: NUMBER OF ATOMS
309
ITEM: BOX BOUNDS pp pp pp
0 500
0 500
0 500
ITEM: ATOMS id type x y z c_pea 
1 1 266.696 259.063 268.582 -1.79795 
2 1 268.966 268.255 264.411 -1.53424 
3 1 257.248 256.421 254.33 -1.54093 
4 1 258.861 265.526 264.533 -2.99495 
5 1 262.751 256.069 257.57 -3.01237 
6 1 258.062 270.194 259.9 -2.03513 
7 1 263.517 269.367 257.513 -2.27 
8 1 261.995 267.006 268.187 -2.52902 
9 1 262.889 256.89 263.891 -2.93835 
10 1 266.367 266.668 259.871 -2.90548 
11 1 252.177 266.766 262.975 -1.4617 
12 1 264.937 255.17 253.869 -1.47204 
13 1 276.799 275.734 255.32 -0.79994 
14 1 259.688 267.825 265.664 -2.62825 
15 1 270.035 261.946 265.332 -1.96583 
16 1 256.715 268.469 255.749 -1.94768 
17 1 260.121 269.675 263.721 -2.57074 
18 1 261.159 269.643 268.63 -1.49344 
19 1 258.215 267.759 263.363 -2.82976 
20 1 254.285 254.237 262.427 -1.35812 
21 1 258.449 255.406 256.612 -2.26187 
22 1 257.843 258.6 270.091 -2.03362 
23 1 255.421 261.472 264.694 -2.78721 
24 1 265.031 265.642 264.904 -3.082 
25 1 262.674 260.994 265.679 -3.25852 
26 1 265.61 252.519 257.95 -1.22855 
27 1 264.691 261.018 256.594 -2.99735 
28 1 255.095 266.961 259.005 -2.30173 
29 1 256.425 266.57 265.018 -2.49106 
30 1 263.641 264.884 267.398 -2.95642 
31 1 257.015 267.927 260.998 -2.71045 
32 1 260.552 255.954 264.73 -2.5096 
33 1 255.527 256.266 263.794 -2.55837 
34 1 263.129 253.876 259.128 -2.34225 
35 1 268.916 262.478 260.739 -2.65214 
36 1 257.562 263.29 256.253 -2.94928 
37 1 263.601 265.569 256.751 -2.79768 
38 1 263.759 267.79 255.279 -1.92558 
39 1 277.155 274.553 252.796 -0.799944 
40 1 268.084 255.117 258.604 -1.49415 
41 1 259.178 267.805 268.275 -1.57305 
42 1 268.372 261.783 263.233 -2.63645 
43 1 260.364 271.069 261.167 -2.15644 
44 1 261.146 261.684 269.055 -2.92783 
45 1 264.485 257.997 253.137 -2.04715 
46 1 258.72 259.404 262.774 -2.9663 
47 1 255.992 263.667 258.327 -3.02727 
48 1 257.358 265.631 259.625 -3.11845 
49 1 261.143 266.78 254.561 -2.33445 
50 1 252.51 264.159 262.212 -2.12309 
51 1 256.056 260.966 257.883 -2.79317 
52 1 266.609 263.934 260.503 -3.00979 
53 1 265.264 256.584 256.182 -2.7086 
54 1 268.15 264.428 268.96 -1.53872 
55 1 257.603 269.528 265.308 -1.70016 
56 1 265.317 256.335 265.135 -2.12934 
57 1 261.439 258.302 253.14 -2.0547 
58 1 259.142 267.368 256.353 -2.92207 
59 1 256.366 266.19 254.298 -1.81113 
60 1 260.198 262.322 256.745 -2.96281 
61 1 261.836 258.515 259.015 -3.18955 
62 1 259.624 258.485 265.06 -3.08851 
63 1 265.66 253.512 260.564 -1.78411 
64 1 266.273 269.498 258.639 -1.33507 
65 1 268.202 263.741 266.336 -2.72961 
66 1 260.274 260.808 252.489 -2.0584 
67 1 267.666 261.657 254.21 -2.07397 
68 1 261.663 256.056 260.041 -3.01426 
69 1 254.456 265.237 263.686 -2.73895 
70 1 263.199 263.055 270.544 -1.70009 
71 1 262.893 259.765 268.212 -2.91593 
72 1 254.787 264.295 266.224 -2.16678 
73 1 257.069 263.196 260.773 -3.21707 
74 1 261.463 254.465 255.633 -1.57354 
75 1 266.868 258.534 265.854 -2.41319 
76 1 264.54 257.804 267.275 -2.48498 
77 1 263.765 254.326 263.969 -1.86646 
78 1 256.792 255.212 261.702 -2.68943 
79 1 261.726 260.287 261.065 -3.09101 
80 1 267.035 256.919 254.064 -1.80612 
81 1 266.931 268.147 266.304 -2.07736 
82 1 261.226 257.995 256.46 -2.95199 
83 1 262.029 258.312 266.153 -3.10144 
84 1 252.786 260.346 259.193 -1.64769 
85 1 255.945 254.535 257.25 -1.49382 
86 1 260.038 256.45 254.537 -2.06533 
87 1 254.286 259.235 256.914 -1.88255 
88 1 266.034 263.692 253.398 -1.81913 
89 1 258.898 265.154 254.764 -2.77335 
90 1 269.059 266.312 266.931 -1.62629 
91 1 267.902 257.118 256.695 -2.22167 
92 1 259.295 265.967 261.679 -2.99178 
93 1 264.34 267.517 261.592 -3.12538 
94 1 262.102 268.806 266.17 -2.80361 
95 1 254.773 264.661 260.514 -3.04657 
96 1 262.893 257.963 261.461 -2.8896 
97 1 262.08 271.366 258.936 -1.92002 
98 1 260.031 270.557 266.285 -1.71603 
99 1 260.023 265.521 266.97 -2.81945 
100 1 256.762 265.506 262.333 -3.23916 
101 1 259.729 266.882 259.138 -3.19771 
102 1 263.073 252.866 261.656 -1.54813 
103 1 258.335 262.083 258.602 -3.16133 
104 1 258.206 258.917 267.41 -2.78186 
105 1 258.937 269.971 255.223 -1.71542 
106 1 268.252 267.049 262.028 -2.28354 
107 1 261.627 267.215 257.272 -2.96965 
108 1 263.49 267.919 264.11 -3.05768 
109 1 264.006 263.361 255.268 -2.78017 
110 1 263.467 263.09 252.521 -1.82026 
111 1 264.232 260.103 262.171 -3.25487 
112 1 259.053 254.269 263.002 -2.30894 
113 1 255.786 259.632 266.498 -2.79244 
114 1 263.053 259.552 254.849 -2.94936 
115 1 258.793 263.111 251.773 -1.32484 
116 1 262.199 266.05 265.541 -3.17766 
117 1 270.307 264.323 257.494 -1.61138 
118 1 256.525 253.687 263.95 -1.76295 
119 1 278.28 277.072 253.342 -0.799838 
120 1 255.591 255.005 266.301 -1.58713 
121 1 269.605 261.969 256.123 -1.90276 
122 1 264.685 270.061 262.884 -2.37524 
123 1 257.462 268.117 258.331 -2.60361 
124 1 255.071 258.904 259.568 -2.7472 
125 1 262.683 260.418 270.878 -1.8829 
126 1 263.169 265.472 262.988 -3.27055 
127 1 267.671 265.93 264.658 -2.8213 
128 1 263.86 269.279 268.458 -1.60793 
129 1 260.128 261.377 263.846 -3.09054 
130 1 261.679 268.799 259.495 -2.78785 
131 1 259.432 272.193 258.761 -1.45744 
132 1 255.795 257.728 268.358 -2.00166 
133 1 260.956 267.074 263.424 -3.20385 
134 1 256.136 257.175 256.728 -2.28184 
135 1 257.979 260.706 256.065 -2.98748 
136 1 260.79 271.736 256.456 -1.32858 
137 1 261.912 259.401 263.641 -3.15742 
138 1 253.764 262.245 257.384 -2.15177 
139 1 256.697 263.812 264.409 -3.10168 
140 1 252.707 261.429 261.91 -1.92565 
141 1 257.432 260.97 253.262 -1.97653 
142 1 267.233 261.837 268.246 -2.44588 
143 1 254.813 261.902 260.021 -2.9383 
144 1 265.462 263.813 269.183 -2.25141 
145 1 263.004 260.376 252.263 -1.79936 
146 1 266.614 269.064 261.304 -1.99208 
147 1 264.703 263.342 262.48 -2.91926 
148 1 279.321 274.776 254.562 -0.620896 
149 1 267.903 257.31 262.752 -1.96982 
150 1 268.801 259.662 261.638 -2.25819 
151 1 258.628 267.684 253.702 -1.58248 
152 1 262.538 261.973 263.053 -3.07513 
153 1 253.508 259.238 267.936 -1.44735 
154 1 260.199 260.736 266.684 -3.27766 
155 1 252.465 263.168 259.692 -1.95148 
156 1 261.654 257.962 271.116 -1.50948 
157 1 255.035 264.236 255.765 -2.20898 
158 1 261.824 266.571 260.928 -3.24544 
159 1 267.343 261.243 265.594 -2.95781 
160 1 258.032 254.073 259.135 -2.19787 
161 1 257.074 257.206 265.864 -2.78319 
162 1 264.346 258.94 264.788 -3.14852 
163 1 259.937 260.231 271.193 -1.96082 
164 1 257.786 270.317 262.556 -1.87199 
165 1 259.202 263.241 268.042 -2.6564 
166 1 265.131 260.472 266.894 -3.07809 
167 1 261.476 264.399 255.78 -2.97349 
168 1 256.266 259.017 254.796 -2.03898 
169 1 259.437 261.566 261.145 -3.14757 
170 1 268.427 257.795 259.494 -2.1531 
171 1 258.177 256.763 263.48 -3.08415 
172 1 257.483 258.795 258.398 -2.85913 
173 1 252.249 265.201 265.281 -1.36543 
174 1 265.398 255.154 258.392 -2.53364 
175 1 259.456 258.833 260.34 -3.13953 
176 1 256.804 263.583 253.68 -1.99283 
177 1 265.663 267.338 257.238 -2.16943 
178 1 260.325 253.501 260.642 -2.04853 
179 1 258.507 260.966 268.973 -2.72902 
180 1 254.133 261.798 267.116 -1.99413 
181 1 261.433 264.447 269.053 -2.4822 
182 1 265.553 264.657 258.196 -2.95913 
183 1 253.611 264.937 257.975 -2.04874 
184 1 254.547 267.065 261.692 -2.2086 
185 1 257.376 270.732 257.32 -1.54315 
186 1 254.59 256.677 261.121 -2.2686 
187 1 265.995 265.629 262.417 -3.04144 
188 1 266.633 263.543 264.186 -2.86025 
189 1 261.581 254.992 262.476 -2.47893 
190 1 265.04 261.015 269.647 -2.21171 
191 1 268.498 264.283 255.051 -1.69159 
192 1 270.111 264.753 264.684 -1.91655 
193 1 253.846 267.486 265.094 -1.43136 
194 1 268.86 265.274 259.896 -2.46891 
195 1 256.949 257.976 261.389 -3.14225 
196 1 267.863 265.684 257.35 -2.13717 
197 1 269.526 259.285 257.449 -1.84353 
198 1 260.435 259.003 268.831 -2.88387 
199 1 259.798 259.902 257.91 -3.14475 
200 1 265.837 259.013 255.298 -2.91799 
201 1 270.401 261.597 258.685 -1.80729 
202 1 266.531 256.209 260.602 -2.5307 
203 1 266.647 259.643 263.387 -3.02394 
204 1 260.555 254.496 258.147 -2.1895 
205 1 255.527 261.609 255.283 -2.20703 
206 1 257.635 255.792 268.166 -1.71309 
207 1 263.47 262.332 267.936 -2.81943 
208 1 259.092 256.035 260.798 -3.00384 
209 1 269.006 259.911 267.203 -1.69601 
210 1 261.5 269.279 255.596 -1.94587 
211 1 257.958 260.544 265.223 -3.02451 
212 1 254.311 257.476 265.892 -2.08466 
213 1 264.33 267.384 266.691 -2.66446 
214 1 264.03 264.921 260.429 -3.26939 
215 1 261.073 264.12 264.039 -3.09817 
216 1 261.171 262.13 259.189 -3.09013 
217 1 260.321 260.022 255.091 -3.01499 
218 1 268.57 259.134 254.878 -1.8675 
219 1 262.832 255.685 266.307 -1.96864 
220 1 263.718 267.116 259.012 -3.0032 
221 1 266.786 259.456 252.761 -1.55168 
222 1 259.69 256.555 269.852 -1.56414 
223 1 264.07 259.952 259.348 -3.18475 
224 1 256.777 256.4 259.234 -2.90324 
225 1 259.467 264.05 259.931 -2.91288 
226 1 265.877 265.573 255.281 -2.2279 
227 1 252.465 266.067 260.203 -1.64851 
228 1 263.545 262.256 260.437 -3.02377 
229 1 263.353 263.024 257.833 -3.09333 
230 1 258.969 263.047 265.466 -3.00615 
231 1 258.71 258.604 253.397 -2.04936 
232 1 255.059 260.159 262.042 -2.7215 
233 1 259.434 262.965 270.74 -1.95051 
234 1 275.509 276.805 253.076 -0.62084 
235 1 261.774 264.937 258.775 -3.25347 
236 1 266.39 261.49 261.434 -3.11303 
237 1 262.896 256.692 254.888 -2.55641 
238 1 264.075 254.085 256.268 -2.02351 
239 1 268.444 264.409 262.494 -2.80692 
240 1 259.601 257.036 258.375 -3.02234 
241 1 264.335 257.292 259.421 -2.9638 
242 1 256.889 263.216 269.476 -1.93109 
243 1 262.208 269.134 262.085 -3.01869 
244 1 262.272 257.027 268.622 -2.17317 
245 1 259.934 256.817 267.162 -2.54794 
246 1 265.207 257.461 262.687 -2.89836 
247 1 257.387 264.912 266.949 -2.52344 
248 1 257.274 261.557 262.866 -3.01278 
249 1 254.495 266.93 256.289 -1.56315 
250 1 267.886 260.497 259.295 -2.76594 
251 1 253.671 258.173 263.218 -1.80155 
252 1 256.829 262.213 266.963 -2.98955 
253 1 269.909 262.444 268.038 -1.33476 
254 1 256.918 265.862 256.946 -2.98696 
255 1 253.272 259.976 265.207 -1.93359 
256 1 261.409 263.246 266.575 -3.08188 
257 1 264.598 266.555 269.289 -1.65035 
258 1 263.982 255.452 261.375 -2.95717 
259 1 270.79 262.939 262.723 -1.78684 
260 1 267.339 260.71 256.743 -2.72903 
261 1 264.978 261.474 264.353 -3.07568 
262 1 255.695 268.733 263.44 -1.85969 
263 1 261.605 263.872 261.411 -3.22033 
264 1 264.986 261.216 253.921 -2.62168 
265 1 259.689 268.52 261.269 -2.96113 
266 1 260.535 257.475 262.469 -2.98292 
267 1 253.097 262.733 264.508 -2.15453 
268 1 266.881 254.462 256.11 -1.70265 
269 1 266.224 258.684 258.057 -3.00122 
270 1 257.151 260.477 260.408 -3.11046 
271 1 261.01 264.277 253.112 -2.12789 
272 1 268.078 263.084 258.265 -2.95708 
273 1 266.37 265.631 267.251 -2.71265 
274 1 266.254 254.919 262.955 -1.77506 
275 1 262.49 270.765 264.299 -2.1364 
276 1 263.443 265.507 253.842 -2.07471 
277 1 262.189 260.628 257.18 -3.05636 
278 1 266.413 263.096 256.201 -2.79272 
279 1 263.483 263.559 264.986 -3.09187 
280 1 258.315 254.842 265.654 -2.0143 
281 1 256.303 258.866 263.942 -3.05388 
282 1 264.325 258.329 270.007 -1.73037 
283 1 257.486 252.639 261.412 -1.43885 
284 1 270.722 265.754 262.095 -1.53904 
285 1 265.714 261.999 258.821 -3.08254 
286 1 261.945 261.981 254.477 -2.88835 
287 1 285.445 304.086 276.827 0 
288 1 264.727 269.832 265.664 -2.2977 
289 1 266.229 258.908 260.733 -3.06635 
290 1 257.296 261.146 271.365 -1.43196 
291 1 255.855 260.507 269.032 -2.20691 
292 1 262.694 271.335 266.987 -1.4353 
293 1 259.389 264.854 257.426 -3.03597 
294 1 259.804 269.537 257.836 -2.84715 
295 1 262.927 271.783 261.668 -1.567 
296 1 254.14 256.527 258.425 -1.68517 
297 1 258.755 265.408 269.503 -1.73139 
298 1 258.881 263.607 262.703 -3.03457 
299 1 259.298 262.528 254.334 -2.73128 
300 1 265.578 263.14 266.552 -3.03077 
301 1 255.197 254.192 259.821 -1.76579 
302 1 269.134 259.404 264.435 -1.95104 
303 1 267.104 270.347 264.276 -1.37779 
304 1 254.971 262.905 262.496 -2.97082 
305 1 264.091 269.788 260.181 -2.45061 
306 1 263.768 258.498 257.109 -2.89352 
307 1 266.126 267.919 263.744 -2.8526 
308 1 258.583 258.113 256.071 -2.91226 
309 1 271.189 263.85 260.11 -1.56851 
