 107 107   0   0
  0.1212439E+02  0.1090639E-08  0.1090639E-08  0.1090639E-08  0.5000000E-15
  1.000000000000000E-004
  CAR 
 unknown system                          
     26.92428140     -7.50207444  301      3.69007389      1.00000000
     -7.502  0.0000E+00  0.0000E+00  0.0000E+00  0.0000E+00
     -7.387  0.0000E+00  0.0000E+00  0.0000E+00  0.0000E+00
     -7.273  0.0000E+00  0.0000E+00  0.0000E+00  0.0000E+00
     -7.158  0.0000E+00  0.0000E+00  0.0000E+00  0.0000E+00
     -7.043  0.0000E+00  0.0000E+00  0.0000E+00  0.0000E+00
     -6.928  0.0000E+00  0.0000E+00  0.0000E+00  0.0000E+00
     -6.814  0.0000E+00  0.0000E+00  0.0000E+00  0.0000E+00
     -6.699  0.0000E+00  0.0000E+00  0.0000E+00  0.0000E+00
     -6.584  0.0000E+00  0.0000E+00  0.0000E+00  0.0000E+00
     -6.469  0.0000E+00  0.0000E+00  0.0000E+00  0.0000E+00
     -6.355  0.0000E+00  0.0000E+00  0.0000E+00  0.0000E+00
     -6.240  0.0000E+00  0.0000E+00  0.0000E+00  0.0000E+00
     -6.125  0.0000E+00  0.0000E+00  0.0000E+00  0.0000E+00
     -6.010  0.0000E+00  0.0000E+00  0.0000E+00  0.0000E+00
     -5.896  0.0000E+00  0.0000E+00  0.0000E+00  0.0000E+00
     -5.781  0.0000E+00  0.0000E+00  0.0000E+00  0.0000E+00
     -5.666  0.0000E+00  0.0000E+00  0.0000E+00  0.0000E+00
     -5.551  0.0000E+00  0.0000E+00  0.0000E+00  0.0000E+00
     -5.436  0.1082E+01  0.1083E+01  0.6892E-01  0.6901E-01
     -5.322  0.2750E+01  0.2751E+01  0.3133E+00  0.3135E+00
     -5.207  0.2811E+01  0.2811E+01  0.6397E+00  0.6399E+00
     -5.092  0.1243E+01  0.1242E+01  0.9136E+00  0.9137E+00
     -4.977  0.2802E+01  0.2803E+01  0.1126E+01  0.1126E+01
     -4.863  0.4026E+01  0.4023E+01  0.1541E+01  0.1541E+01
     -4.748  0.3847E+01  0.3846E+01  0.2090E+01  0.2090E+01
     -4.633  0.3103E+01  0.3104E+01  0.2473E+01  0.2473E+01
     -4.518  0.5806E+01  0.5809E+01  0.2978E+01  0.2978E+01
     -4.404  0.6764E+01  0.6758E+01  0.3756E+01  0.3757E+01
     -4.289  0.2040E+01  0.2041E+01  0.4185E+01  0.4186E+01
     -4.174  0.4503E+01  0.4504E+01  0.4602E+01  0.4602E+01
     -4.059  0.4150E+01  0.4149E+01  0.5195E+01  0.5196E+01
     -3.945  0.1091E+02  0.1087E+02  0.6156E+01  0.6157E+01
     -3.830  0.6343E+01  0.6341E+01  0.6838E+01  0.6839E+01
     -3.715  0.6842E+01  0.6842E+01  0.7455E+01  0.7455E+01
     -3.600  0.5435E+01  0.5448E+01  0.8078E+01  0.8078E+01
     -3.486  0.5323E+01  0.5322E+01  0.8929E+01  0.8929E+01
     -3.371  0.8460E+01  0.8456E+01  0.9736E+01  0.9737E+01
     -3.256  0.3264E+01  0.3263E+01  0.1041E+02  0.1041E+02
     -3.141  0.1143E+02  0.1143E+02  0.1124E+02  0.1124E+02
     -3.027  0.7543E+01  0.7587E+01  0.1243E+02  0.1243E+02
     -2.912  0.6438E+01  0.6439E+01  0.1377E+02  0.1377E+02
     -2.797  0.8545E+01  0.8534E+01  0.1471E+02  0.1472E+02
     -2.682  0.5973E+01  0.5969E+01  0.1598E+02  0.1598E+02
     -2.568  0.2890E+01  0.2889E+01  0.1648E+02  0.1649E+02
     -2.453  0.1068E+02  0.1069E+02  0.1721E+02  0.1721E+02
     -2.338  0.1874E+02  0.1871E+02  0.1932E+02  0.1932E+02
     -2.223  0.8439E+01  0.8413E+01  0.2097E+02  0.2097E+02
     -2.109  0.7810E+01  0.7806E+01  0.2210E+02  0.2211E+02
     -1.994  0.1423E+02  0.1423E+02  0.2324E+02  0.2324E+02
     -1.879  0.2008E+02  0.2016E+02  0.2496E+02  0.2496E+02
     -1.764  0.1840E+02  0.1840E+02  0.2674E+02  0.2674E+02
     -1.650  0.2476E+02  0.2483E+02  0.2939E+02  0.2939E+02
     -1.535  0.2139E+02  0.2144E+02  0.3129E+02  0.3129E+02
     -1.420  0.1346E+02  0.1418E+02  0.3336E+02  0.3336E+02
     -1.305  0.5647E+02  0.5643E+02  0.3780E+02  0.3781E+02
     -1.191  0.3449E+02  0.3440E+02  0.4223E+02  0.4223E+02
     -1.076  0.5403E+02  0.5427E+02  0.4836E+02  0.4837E+02
     -0.961  0.4503E+02  0.4684E+02  0.5552E+02  0.5552E+02
     -0.846  0.6369E+02  0.6391E+02  0.6319E+02  0.6319E+02
     -0.732  0.5408E+02  0.5419E+02  0.7084E+02  0.7085E+02
     -0.617  0.1036E+03  0.1036E+03  0.8110E+02  0.8111E+02
     -0.502  0.1077E+03  0.1085E+03  0.9257E+02  0.9258E+02
     -0.387  0.1750E+03  0.1515E+03  0.1069E+03  0.1069E+03
     -0.273  0.1120E+03  0.1088E+03  0.1222E+03  0.1222E+03
     -0.158  0.9030E+02  0.9000E+02  0.1358E+03  0.1358E+03
     -0.043  0.1180E+03  0.1178E+03  0.1486E+03  0.1486E+03
      0.072  0.1084E+03  0.1086E+03  0.1623E+03  0.1623E+03
      0.186  0.1138E+03  0.1135E+03  0.1761E+03  0.1761E+03
      0.301  0.1493E+03  0.1508E+03  0.1930E+03  0.1930E+03
      0.416  0.2721E+03  0.2699E+03  0.2134E+03  0.2134E+03
      0.531  0.2214E+03  0.2225E+03  0.2316E+03  0.2316E+03
      0.645  0.1918E+03  0.1915E+03  0.2560E+03  0.2560E+03
      0.760  0.2171E+03  0.2063E+03  0.2805E+03  0.2805E+03
      0.875  0.2073E+03  0.2064E+03  0.3072E+03  0.3072E+03
      0.990  0.1603E+03  0.1604E+03  0.3287E+03  0.3288E+03
      1.105  0.1506E+03  0.1514E+03  0.3464E+03  0.3464E+03
      1.219  0.1431E+03  0.1435E+03  0.3630E+03  0.3630E+03
      1.334  0.1989E+03  0.1994E+03  0.3832E+03  0.3832E+03
      1.449  0.1900E+03  0.1626E+03  0.4077E+03  0.4077E+03
      1.564  0.3084E+03  0.2289E+03  0.4303E+03  0.4304E+03
      1.678  0.2164E+03  0.2284E+03  0.4497E+03  0.4498E+03
      1.793  0.2072E+03  0.2052E+03  0.4711E+03  0.4711E+03
      1.908  0.1938E+03  0.1940E+03  0.4952E+03  0.4952E+03
      2.023  0.3366E+03  0.3173E+03  0.5295E+03  0.5295E+03
      2.137  0.1101E+03  0.1102E+03  0.5525E+03  0.5525E+03
      2.252  0.2161E+02  0.2161E+02  0.5577E+03  0.5577E+03
      2.367  0.1605E+02  0.1605E+02  0.5598E+03  0.5598E+03
      2.482  0.1764E+02  0.1692E+02  0.5633E+03  0.5633E+03
      2.596  0.2073E+02  0.2073E+02  0.5650E+03  0.5650E+03
      2.711  0.9350E+01  0.9363E+01  0.5665E+03  0.5665E+03
      2.826  0.2777E+02  0.2781E+02  0.5695E+03  0.5695E+03
      2.941  0.1988E+02  0.1982E+02  0.5721E+03  0.5721E+03
      3.055  0.1834E+02  0.1839E+02  0.5733E+03  0.5733E+03
      3.170  0.2435E+02  0.2435E+02  0.5759E+03  0.5759E+03
      3.285  0.1496E+02  0.1497E+02  0.5782E+03  0.5782E+03
      3.400  0.1831E+02  0.1833E+02  0.5806E+03  0.5806E+03
      3.514  0.1351E+02  0.1351E+02  0.5822E+03  0.5822E+03
      3.629  0.1244E+02  0.1250E+02  0.5838E+03  0.5838E+03
      3.744  0.1432E+02  0.1432E+02  0.5853E+03  0.5853E+03
      3.859  0.1432E+02  0.1430E+02  0.5872E+03  0.5872E+03
      3.973  0.2501E+02  0.2500E+02  0.5890E+03  0.5890E+03
      4.088  0.2586E+02  0.2577E+02  0.5921E+03  0.5921E+03
      4.203  0.8875E+01  0.8873E+01  0.5936E+03  0.5936E+03
      4.318  0.5801E+01  0.5814E+01  0.5943E+03  0.5943E+03
      4.432  0.1407E+02  0.1408E+02  0.5956E+03  0.5956E+03
      4.547  0.1601E+02  0.1601E+02  0.5974E+03  0.5974E+03
      4.662  0.1320E+02  0.1320E+02  0.5991E+03  0.5991E+03
      4.777  0.2320E+02  0.2314E+02  0.6012E+03  0.6012E+03
      4.891  0.1216E+02  0.1215E+02  0.6033E+03  0.6033E+03
      5.006  0.1443E+02  0.1443E+02  0.6048E+03  0.6048E+03
      5.121  0.1394E+02  0.1394E+02  0.6067E+03  0.6067E+03
      5.236  0.6614E+01  0.6613E+01  0.6081E+03  0.6081E+03
      5.350  0.1324E+02  0.1324E+02  0.6094E+03  0.6094E+03
      5.465  0.6726E+01  0.6672E+01  0.6106E+03  0.6106E+03
      5.580  0.1295E+02  0.1296E+02  0.6121E+03  0.6121E+03
      5.695  0.8756E+01  0.8759E+01  0.6133E+03  0.6133E+03
      5.809  0.2349E+02  0.2351E+02  0.6149E+03  0.6149E+03
      5.924  0.9228E+01  0.9219E+01  0.6169E+03  0.6169E+03
      6.039  0.9541E+01  0.9542E+01  0.6182E+03  0.6182E+03
      6.154  0.8223E+01  0.8222E+01  0.6193E+03  0.6193E+03
      6.268  0.1476E+02  0.1476E+02  0.6210E+03  0.6210E+03
      6.383  0.5326E+01  0.5309E+01  0.6222E+03  0.6222E+03
      6.498  0.8913E+01  0.8916E+01  0.6230E+03  0.6230E+03
      6.613  0.1098E+02  0.1098E+02  0.6242E+03  0.6242E+03
      6.727  0.8858E+01  0.8857E+01  0.6255E+03  0.6255E+03
      6.842  0.5049E+01  0.5047E+01  0.6264E+03  0.6264E+03
      6.957  0.1280E+02  0.1279E+02  0.6277E+03  0.6277E+03
      7.072  0.7716E+01  0.7736E+01  0.6288E+03  0.6288E+03
      7.187  0.1375E+02  0.1374E+02  0.6304E+03  0.6304E+03
      7.301  0.1237E+02  0.1235E+02  0.6319E+03  0.6319E+03
      7.416  0.7170E+01  0.7169E+01  0.6332E+03  0.6332E+03
      7.531  0.5369E+01  0.5368E+01  0.6339E+03  0.6339E+03
      7.646  0.1991E+02  0.1994E+02  0.6353E+03  0.6353E+03
      7.760  0.2361E+02  0.2363E+02  0.6372E+03  0.6372E+03
      7.875  0.1603E+02  0.1603E+02  0.6396E+03  0.6396E+03
      7.990  0.1407E+02  0.1387E+02  0.6418E+03  0.6418E+03
      8.105  0.1178E+02  0.1177E+02  0.6427E+03  0.6427E+03
      8.219  0.2445E+02  0.2447E+02  0.6444E+03  0.6444E+03
      8.334  0.1957E+02  0.1956E+02  0.6466E+03  0.6466E+03
      8.449  0.1417E+02  0.1417E+02  0.6484E+03  0.6484E+03
      8.564  0.1769E+02  0.1768E+02  0.6501E+03  0.6501E+03
      8.678  0.1906E+02  0.1884E+02  0.6519E+03  0.6519E+03
      8.793  0.1090E+02  0.1092E+02  0.6535E+03  0.6535E+03
      8.908  0.7692E+01  0.7513E+01  0.6551E+03  0.6551E+03
      9.023  0.5049E+01  0.5048E+01  0.6572E+03  0.6572E+03
      9.137  0.1091E+02  0.9480E+01  0.6581E+03  0.6581E+03
      9.252  0.1258E+02  0.1258E+02  0.6594E+03  0.6594E+03
      9.367  0.1940E+02  0.1946E+02  0.6614E+03  0.6614E+03
      9.482  0.3281E+02  0.3301E+02  0.6631E+03  0.6631E+03
      9.596  0.1662E+02  0.1662E+02  0.6654E+03  0.6654E+03
      9.711  0.9189E+01  0.9188E+01  0.6670E+03  0.6670E+03
      9.826  0.9068E+01  0.9071E+01  0.6679E+03  0.6679E+03
      9.941  0.1547E+02  0.1550E+02  0.6694E+03  0.6694E+03
     10.055  0.1663E+02  0.1664E+02  0.6713E+03  0.6713E+03
     10.170  0.1023E+02  0.1022E+02  0.6729E+03  0.6729E+03
     10.285  0.1966E+02  0.1983E+02  0.6740E+03  0.6740E+03
     10.400  0.1422E+02  0.1423E+02  0.6757E+03  0.6757E+03
     10.514  0.1286E+02  0.1285E+02  0.6772E+03  0.6772E+03
     10.629  0.1321E+02  0.1319E+02  0.6788E+03  0.6788E+03
     10.744  0.1515E+02  0.1515E+02  0.6803E+03  0.6803E+03
     10.859  0.1665E+02  0.1664E+02  0.6820E+03  0.6820E+03
     10.973  0.1708E+02  0.1709E+02  0.6839E+03  0.6839E+03
     11.088  0.1991E+02  0.1983E+02  0.6860E+03  0.6860E+03
     11.203  0.1791E+02  0.1791E+02  0.6882E+03  0.6882E+03
     11.318  0.2143E+02  0.2129E+02  0.6901E+03  0.6901E+03
     11.432  0.1836E+02  0.1836E+02  0.6921E+03  0.6921E+03
     11.547  0.1451E+02  0.1417E+02  0.6938E+03  0.6938E+03
     11.662  0.1427E+02  0.1427E+02  0.6956E+03  0.6956E+03
     11.777  0.1836E+02  0.1838E+02  0.6975E+03  0.6975E+03
     11.891  0.1828E+02  0.1824E+02  0.6995E+03  0.6995E+03
     12.006  0.1714E+02  0.1715E+02  0.7015E+03  0.7015E+03
     12.121  0.2319E+02  0.2622E+02  0.7040E+03  0.7040E+03
     12.236  0.2436E+02  0.2435E+02  0.7070E+03  0.7070E+03
     12.350  0.2206E+02  0.2207E+02  0.7097E+03  0.7097E+03
     12.465  0.1460E+02  0.1456E+02  0.7116E+03  0.7116E+03
     12.580  0.1898E+02  0.1897E+02  0.7134E+03  0.7134E+03
     12.695  0.1518E+02  0.1518E+02  0.7152E+03  0.7152E+03
     12.809  0.2733E+02  0.2738E+02  0.7180E+03  0.7180E+03
     12.924  0.1819E+02  0.1819E+02  0.7208E+03  0.7208E+03
     13.039  0.1414E+02  0.1414E+02  0.7228E+03  0.7228E+03
     13.154  0.1512E+02  0.1512E+02  0.7248E+03  0.7248E+03
     13.268  0.1569E+02  0.1570E+02  0.7267E+03  0.7267E+03
     13.383  0.3932E+02  0.4034E+02  0.7285E+03  0.7285E+03
     13.498  0.2767E+02  0.2640E+02  0.7303E+03  0.7303E+03
     13.613  0.2117E+02  0.1773E+02  0.7325E+03  0.7326E+03
     13.728  0.1978E+02  0.1979E+02  0.7350E+03  0.7350E+03
     13.842  0.1769E+02  0.1767E+02  0.7376E+03  0.7376E+03
     13.957  0.5891E+02  0.5676E+02  0.7400E+03  0.7401E+03
     14.072  0.3288E+02  0.3609E+02  0.7426E+03  0.7426E+03
     14.187  0.2980E+02  0.2978E+02  0.7452E+03  0.7452E+03
     14.301  0.1174E+02  0.1172E+02  0.7473E+03  0.7473E+03
     14.416  0.8426E+01  0.8419E+01  0.7492E+03  0.7492E+03
     14.531  0.1987E+02  0.1987E+02  0.7514E+03  0.7514E+03
     14.646  0.2516E+02  0.2531E+02  0.7542E+03  0.7542E+03
     14.760  0.2218E+02  0.2220E+02  0.7566E+03  0.7566E+03
     14.875  0.1684E+02  0.1685E+02  0.7590E+03  0.7590E+03
     14.990  0.1852E+02  0.1851E+02  0.7613E+03  0.7613E+03
     15.105  0.2195E+02  0.2198E+02  0.7638E+03  0.7638E+03
     15.219  0.3664E+02  0.3695E+02  0.7667E+03  0.7667E+03
     15.334  0.1905E+02  0.1903E+02  0.7690E+03  0.7690E+03
     15.449  0.1597E+02  0.1598E+02  0.7709E+03  0.7709E+03
     15.564  0.3584E+02  0.3596E+02  0.7731E+03  0.7731E+03
     15.678  0.1133E+02  0.1133E+02  0.7760E+03  0.7760E+03
     15.793  0.1372E+02  0.1372E+02  0.7774E+03  0.7774E+03
     15.908  0.2847E+02  0.2846E+02  0.7802E+03  0.7802E+03
     16.023  0.2523E+02  0.2521E+02  0.7832E+03  0.7832E+03
     16.137  0.1882E+02  0.1880E+02  0.7858E+03  0.7858E+03
     16.252  0.1889E+02  0.1889E+02  0.7880E+03  0.7880E+03
     16.367  0.1451E+02  0.1450E+02  0.7906E+03  0.7906E+03
     16.482  0.3891E+02  0.3861E+02  0.7936E+03  0.7936E+03
     16.596  0.1287E+02  0.1287E+02  0.7959E+03  0.7959E+03
     16.711  0.2905E+02  0.2911E+02  0.7985E+03  0.7985E+03
     16.826  0.3152E+02  0.3165E+02  0.8016E+03  0.8016E+03
     16.941  0.3101E+02  0.3111E+02  0.8048E+03  0.8048E+03
     17.055  0.3375E+02  0.3363E+02  0.8078E+03  0.8078E+03
     17.170  0.1702E+02  0.1702E+02  0.8108E+03  0.8108E+03
     17.285  0.2237E+02  0.2235E+02  0.8132E+03  0.8132E+03
     17.400  0.2016E+02  0.2013E+02  0.8159E+03  0.8159E+03
     17.514  0.1745E+02  0.1747E+02  0.8189E+03  0.8189E+03
     17.629  0.1218E+02  0.1218E+02  0.8212E+03  0.8212E+03
     17.744  0.1804E+02  0.1804E+02  0.8230E+03  0.8230E+03
     17.859  0.2291E+02  0.2293E+02  0.8257E+03  0.8257E+03
     17.973  0.1363E+02  0.1363E+02  0.8279E+03  0.8279E+03
     18.088  0.3078E+02  0.3080E+02  0.8312E+03  0.8312E+03
     18.203  0.1999E+02  0.1998E+02  0.8345E+03  0.8345E+03
     18.318  0.2452E+02  0.2482E+02  0.8366E+03  0.8366E+03
     18.432  0.2021E+02  0.2022E+02  0.8393E+03  0.8393E+03
     18.547  0.1399E+02  0.1399E+02  0.8414E+03  0.8414E+03
     18.662  0.1631E+02  0.1629E+02  0.8433E+03  0.8433E+03
     18.777  0.2282E+02  0.2290E+02  0.8458E+03  0.8459E+03
     18.891  0.3147E+02  0.3146E+02  0.8489E+03  0.8489E+03
     19.006  0.2263E+02  0.2271E+02  0.8516E+03  0.8516E+03
     19.121  0.1508E+02  0.1508E+02  0.8535E+03  0.8535E+03
     19.236  0.3421E+02  0.3086E+02  0.8555E+03  0.8555E+03
     19.350  0.2029E+02  0.2030E+02  0.8581E+03  0.8581E+03
     19.465  0.2259E+02  0.2261E+02  0.8606E+03  0.8606E+03
     19.580  0.2346E+02  0.2347E+02  0.8635E+03  0.8635E+03
     19.695  0.1760E+02  0.1760E+02  0.8659E+03  0.8659E+03
     19.810  0.1890E+02  0.1893E+02  0.8680E+03  0.8680E+03
     19.924  0.1777E+02  0.1778E+02  0.8703E+03  0.8703E+03
     20.039  0.1129E+02  0.1122E+02  0.8723E+03  0.8723E+03
     20.154  0.1162E+02  0.1161E+02  0.8738E+03  0.8738E+03
     20.269  0.1675E+02  0.1675E+02  0.8756E+03  0.8756E+03
     20.383  0.1895E+02  0.1895E+02  0.8775E+03  0.8775E+03
     20.498  0.1958E+02  0.1958E+02  0.8801E+03  0.8801E+03
     20.613  0.1914E+02  0.1911E+02  0.8820E+03  0.8820E+03
     20.728  0.1388E+02  0.1387E+02  0.8838E+03  0.8838E+03
     20.842  0.1570E+02  0.1571E+02  0.8856E+03  0.8856E+03
     20.957  0.1871E+02  0.1872E+02  0.8873E+03  0.8873E+03
     21.072  0.1683E+02  0.1684E+02  0.8896E+03  0.8896E+03
     21.187  0.1868E+02  0.1868E+02  0.8917E+03  0.8917E+03
     21.301  0.1765E+02  0.1764E+02  0.8941E+03  0.8941E+03
     21.416  0.1632E+02  0.1632E+02  0.8961E+03  0.8961E+03
     21.531  0.2084E+02  0.2075E+02  0.8982E+03  0.8982E+03
     21.646  0.2204E+02  0.2206E+02  0.9003E+03  0.9003E+03
     21.760  0.1878E+02  0.1877E+02  0.9028E+03  0.9028E+03
     21.875  0.1913E+02  0.1904E+02  0.9050E+03  0.9050E+03
     21.990  0.1657E+02  0.1657E+02  0.9070E+03  0.9070E+03
     22.105  0.1501E+02  0.1502E+02  0.9088E+03  0.9088E+03
     22.219  0.2014E+02  0.2006E+02  0.9108E+03  0.9108E+03
     22.334  0.2037E+02  0.2038E+02  0.9131E+03  0.9131E+03
     22.449  0.1889E+02  0.1887E+02  0.9155E+03  0.9155E+03
     22.564  0.2095E+02  0.2097E+02  0.9177E+03  0.9178E+03
     22.678  0.1760E+02  0.1761E+02  0.9199E+03  0.9199E+03
     22.793  0.2415E+02  0.2411E+02  0.9224E+03  0.9224E+03
     22.908  0.2763E+02  0.2760E+02  0.9252E+03  0.9252E+03
     23.023  0.2759E+02  0.2757E+02  0.9282E+03  0.9282E+03
     23.137  0.2274E+02  0.2275E+02  0.9313E+03  0.9313E+03
     23.252  0.1305E+02  0.1305E+02  0.9332E+03  0.9332E+03
     23.367  0.2379E+02  0.2381E+02  0.9358E+03  0.9358E+03
     23.482  0.2579E+02  0.2578E+02  0.9389E+03  0.9389E+03
     23.596  0.2115E+02  0.2116E+02  0.9416E+03  0.9416E+03
     23.711  0.2143E+02  0.2143E+02  0.9443E+03  0.9443E+03
     23.826  0.1841E+02  0.1880E+02  0.9468E+03  0.9468E+03
     23.941  0.2868E+02  0.2871E+02  0.9495E+03  0.9495E+03
     24.055  0.3371E+02  0.3364E+02  0.9530E+03  0.9530E+03
     24.170  0.2404E+02  0.2436E+02  0.9565E+03  0.9565E+03
     24.285  0.2319E+02  0.2318E+02  0.9591E+03  0.9591E+03
     24.400  0.3782E+02  0.3788E+02  0.9623E+03  0.9623E+03
     24.514  0.2345E+02  0.2340E+02  0.9663E+03  0.9663E+03
     24.629  0.1899E+02  0.2289E+02  0.9686E+03  0.9686E+03
     24.744  0.1504E+02  0.1484E+02  0.9708E+03  0.9707E+03
     24.859  0.5310E+01  0.3907E+01  0.9720E+03  0.9719E+03
     24.973  0.0000E+00  0.0000E+00  0.9720E+03  0.9720E+03
     25.088  0.0000E+00  0.0000E+00  0.9720E+03  0.9720E+03
     25.203  0.0000E+00  0.0000E+00  0.9720E+03  0.9720E+03
     25.318  0.0000E+00  0.0000E+00  0.9720E+03  0.9720E+03
     25.432  0.0000E+00  0.0000E+00  0.9720E+03  0.9720E+03
     25.547  0.0000E+00  0.0000E+00  0.9720E+03  0.9720E+03
     25.662  0.0000E+00  0.0000E+00  0.9720E+03  0.9720E+03
     25.777  0.0000E+00  0.0000E+00  0.9720E+03  0.9720E+03
     25.891  0.0000E+00  0.0000E+00  0.9720E+03  0.9720E+03
     26.006  0.0000E+00  0.0000E+00  0.9720E+03  0.9720E+03
     26.121  0.0000E+00  0.0000E+00  0.9720E+03  0.9720E+03
     26.236  0.0000E+00  0.0000E+00  0.9720E+03  0.9720E+03
     26.351  0.0000E+00  0.0000E+00  0.9720E+03  0.9720E+03
     26.465  0.0000E+00  0.0000E+00  0.9720E+03  0.9720E+03
     26.580  0.0000E+00  0.0000E+00  0.9720E+03  0.9720E+03
     26.695  0.0000E+00  0.0000E+00  0.9720E+03  0.9720E+03
     26.810  0.0000E+00  0.0000E+00  0.9720E+03  0.9720E+03
     26.924  0.0000E+00  0.0000E+00  0.9720E+03  0.9720E+03
