unknown system                          
           1
    10.906394    0.000000    0.000000
     0.000000   10.906394    0.000000
     0.000000    0.000000   10.906394
   Al   Mg
   1 106
Direct configuration=     1
   0.08240692  0.99990723  0.08251375
   0.00317601  0.00002492  0.32423558
   0.00016450  0.00000440  0.66781832
   0.99751368  0.33842248  0.99746964
   0.99858468  0.33683490  0.33611403
   0.99890460  0.33152231  0.66535755
   0.99752233  0.66155710  0.99747467
   0.99858635  0.66311936  0.33613146
   0.99889384  0.66851174  0.66537512
   0.32433254  0.00002324  0.00308552
   0.32956847  0.00001305  0.32961041
   0.33098874  0.99999072  0.66731646
   0.33609815  0.33689547  0.99860314
   0.33292378  0.33210042  0.33296644
   0.33338044  0.33240295  0.66459527
   0.33612938  0.66305547  0.99860362
   0.33287708  0.66792184  0.33292633
   0.33335350  0.66761678  0.66459685
   0.66771834  0.00000925  0.00015567
   0.66727337  0.99999090  0.33098276
   0.66623805  0.99996056  0.66625725
   0.66535176  0.33152067  0.99896306
   0.66466416  0.33231300  0.33337141
   0.66588102  0.33172942  0.66583730
   0.66535918  0.66851606  0.99895924
   0.66467178  0.66770846  0.33334413
   0.66589254  0.66827051  0.66584676
   0.99667436  0.18184870  0.16841760
   0.99970143  0.16492407  0.49742238
   0.99991002  0.16600798  0.83584096
   0.99809991  0.49998440  0.16704565
   0.99850208  0.50000958  0.50195345
   0.99810794  0.49998604  0.82947655
   0.99661256  0.81806481  0.16847765
   0.99970429  0.83509674  0.49739400
   0.99993468  0.83403261  0.83589548
   0.32927894  0.16606409  0.16522622
   0.33152522  0.16502535  0.49846390
   0.33248974  0.16725082  0.83261304
   0.33566750  0.49998619  0.16703551
   0.33344500  0.50002391  0.49904806
   0.33487518  0.49998973  0.83020208
   0.32922854  0.83398134  0.16520100
   0.33149124  0.83497005  0.49844227
   0.33249293  0.83274681  0.83259486
   0.66769463  0.16494629  0.16544532
   0.66596787  0.16504630  0.49906819
   0.66658190  0.16493994  0.83354287
   0.66314404  0.50000411  0.16653507
   0.66512991  0.50001736  0.49994208
   0.66603188  0.50001643  0.83159137
   0.66771291  0.83508101  0.16542087
   0.66596051  0.83490309  0.49905609
   0.66659678  0.83505236  0.83356582
   0.16502425  0.00000938  0.49743396
   0.16215829  0.00001903  0.84081261
   0.16767525  0.33841652  0.16763868
   0.16609194  0.33152187  0.49976652
   0.16655417  0.33688135  0.82898373
   0.16766649  0.66156004  0.16763297
   0.16607149  0.66851554  0.49975754
   0.16654387  0.66307463  0.82896043
   0.49735070  0.00000764  0.16502959
   0.49865705  0.99996661  0.49867191
   0.49772230  0.99999033  0.83412086
   0.49976460  0.33153629  0.16616795
   0.49924928  0.33179078  0.49919869
   0.50046149  0.33237827  0.83168575
   0.49975256  0.66849923  0.16615502
   0.49922588  0.66821287  0.49917176
   0.50045854  0.66763579  0.83169333
   0.84085364  0.00002522  0.16206650
   0.83414210  0.99998724  0.49776743
   0.83543009  0.00001378  0.83548217
   0.82897532  0.33683416  0.16655266
   0.83170433  0.33228851  0.50041306
   0.83214367  0.33204848  0.83218233
   0.82895352  0.66312143  0.16653520
   0.83171121  0.66773238  0.50040690
   0.83217501  0.66796607  0.83221560
   0.16847099  0.18173756  0.99663416
   0.16522808  0.16606890  0.32930898
   0.16544121  0.16500588  0.66774199
   0.16705404  0.49999056  0.99809755
   0.16694660  0.49998562  0.33565282
   0.16644542  0.50000217  0.66309359
   0.16853987  0.81817501  0.99657373
   0.16519653  0.83398331  0.32925941
   0.16541587  0.83501485  0.66775629
   0.49738072  0.16501030  0.99971371
   0.49841254  0.16501832  0.33154690
   0.49908379  0.16509695  0.66593595
   0.50200168  0.49999598  0.99859101
   0.49910699  0.50002470  0.33348303
   0.50003691  0.50001760  0.66503217
   0.49734702  0.83501700  0.99971612
   0.49838808  0.83497506  0.33151434
   0.49907504  0.83485682  0.66592496
   0.83581130  0.16600965  0.99990733
   0.83265918  0.16711850  0.33243403
   0.83353113  0.16492472  0.66663834
   0.82948449  0.49998969  0.99816989
   0.83025424  0.49999276  0.33482909
   0.83157543  0.50001465  0.66597604
   0.83586045  0.83404015  0.99992809
   0.83265075  0.83288665  0.33243314
   0.83355453  0.83506987  0.66666118
