Processors received = 8
script running on host compute-1-22.local
PBS_NODEFILE
compute-1-22
compute-1-22
compute-1-22
compute-1-22
compute-1-22
compute-1-22
compute-1-22
compute-1-22
 running on    8 nodes
 distr:  one band on    1 nodes,    8 groups
 vasp.5.2.2 15Apr09 complex 
 POSCAR found type information on POSCAR  Al
 POSCAR found :  1 types and   32 ions

 ----------------------------------------------------------------------------- 
|                                                                             |
|  ADVICE TO THIS USER RUNNING 'VASP/VAMP'   (HEAR YOUR MASTER'S VOICE ...):  |
|                                                                             |
|      You have a (more or less) 'large supercell' and for larger cells       |
|      it might be more efficient to use real space projection operators      |
|      So try LREAL= Auto  in the INCAR   file.                               |
|      Mind: If you want to do a very accurate calculations keep the          |
|      reciprocal projection scheme          (i.e. LREAL=.FALSE.)             |
|                                                                             |
 ----------------------------------------------------------------------------- 

 LDA part: xc-table for Pade appr. of Perdew
 POSCAR, INCAR and KPOINTS ok, starting setup
 FFT: planning ...(           1 )
 reading WAVECAR
 entering main loop
       N       E                     dE             d eps       ncg     rms          rms(c)
RMM:   1     0.258200491136E+03    0.25820E+03   -0.16656E+04    72   0.563E+02
RMM:   2    -0.232823128911E+02   -0.28148E+03   -0.27332E+03    72   0.116E+02
RMM:   3    -0.753060918612E+02   -0.52024E+02   -0.51754E+02    72   0.368E+01
RMM:   4    -0.918545103052E+02   -0.16548E+02   -0.12659E+02    72   0.200E+01
RMM:   5    -0.990362735421E+02   -0.71818E+01   -0.49565E+01    72   0.111E+01
RMM:   6    -0.101600027804E+03   -0.25638E+01   -0.19253E+01    72   0.634E+00
RMM:   7    -0.102582470602E+03   -0.98244E+00   -0.81815E+00    72   0.367E+00
RMM:   8    -0.103013283553E+03   -0.43081E+00   -0.37751E+00    72   0.223E+00
RMM:   9    -0.103390109304E+03   -0.37683E+00   -0.33887E+00   148   0.139E+00
RMM:  10    -0.103430205197E+03   -0.40096E-01   -0.33077E-01   126   0.279E-01
RMM:  11    -0.103433009379E+03   -0.28042E-02   -0.20091E-02   120   0.616E-02
RMM:  12    -0.103433109994E+03   -0.10061E-03   -0.79542E-04    84   0.161E-02    0.622E+00
RMM:  13    -0.102888514975E+03    0.54460E+00   -0.68750E-02   144   0.742E-01    0.387E+00
RMM:  14    -0.102478553536E+03    0.40996E+00   -0.22732E-01   144   0.127E+00    0.152E-01
RMM:  15    -0.102478599736E+03   -0.46200E-04   -0.17047E-03   144   0.144E-01    0.391E-02
RMM:  16    -0.102478600583E+03   -0.84685E-06   -0.53901E-05    86   0.167E-02
   1 F= -.10247860E+03 E0= -.10236576E+03  d E =-.102479E+03
 curvature:   0.00 expect dE= 0.000E+00 dE for cont linesearch  0.000E+00
 trial: gam= 0.00000 g(F)=  0.682E-60 g(S)=  0.703E+00 ort = 0.000E+00 (trialstep = 0.100E+01)
 search vector abs. value=  0.703E+00
 bond charge predicted
       N       E                     dE             d eps       ncg     rms          rms(c)
RMM:   1    -0.102733637265E+03   -0.25504E+00   -0.41780E+00   144   0.538E+00    0.911E-01
RMM:   2    -0.102715414972E+03    0.18222E-01   -0.14786E-02   144   0.341E-01    0.576E-01
RMM:   3    -0.102702416488E+03    0.12998E-01   -0.55803E-03   144   0.175E-01    0.238E-02
RMM:   4    -0.102702431024E+03   -0.14536E-04   -0.17534E-04    84   0.424E-02
   2 F= -.10270243E+03 E0= -.10258959E+03  d E =-.223830E+00
 trial-energy change:   -0.223830  1 .order   -0.212317   -0.702522    0.277888
 step:   0.7304(harm=  0.7166)  dis= 0.00000  next Energy=  -102.739660 (dE=-0.261E+00)
 bond charge predicted
       N       E                     dE             d eps       ncg     rms          rms(c)
RMM:   1    -0.102742963727E+03   -0.40547E-01   -0.29562E-01   144   0.141E+00    0.239E-01
RMM:   2    -0.102741566564E+03    0.13972E-02   -0.88488E-04   124   0.829E-02    0.152E-01
RMM:   3    -0.102740516086E+03    0.10505E-02   -0.37810E-04   110   0.468E-02    0.685E-03
RMM:   4    -0.102740521193E+03   -0.51076E-05   -0.14784E-05    63   0.143E-02
   3 F= -.10274052E+03 E0= -.10262768E+03  d E =-.261921E+00
 curvature:  -0.36 expect dE=-0.121E-05 dE for cont linesearch -0.121E-05
 trial: gam= 0.00000 g(F)=  0.284E-60 g(S)=  0.339E-05 ort =-0.154E-02 (trialstep = 0.946E+00)
 search vector abs. value=  0.339E-05
 reached required accuracy - stopping structural energy minimisation
