  33  33   0   0
  0.1602710E+02  0.8087040E-09  0.8087040E-09  0.8087040E-09  0.5000000E-15
  1.000000000000000E-004
  CAR 
 unknown system                          
     16.53172272     -4.66993073  301      8.29036877      1.00000000
     -4.670  0.0000E+00  0.0000E+00
     -4.599  0.0000E+00  0.0000E+00
     -4.529  0.0000E+00  0.0000E+00
     -4.458  0.0000E+00  0.0000E+00
     -4.387  0.0000E+00  0.0000E+00
     -4.317 -0.1253E-29 -0.8853E-31
     -4.246 -0.3548E-27 -0.2516E-28
     -4.175 -0.7833E-25 -0.5561E-26
     -4.105 -0.1344E-22 -0.9552E-24
     -4.034 -0.1791E-20 -0.1275E-21
     -3.963 -0.1853E-18 -0.1322E-19
     -3.893 -0.1489E-16 -0.1065E-17
     -3.822 -0.9029E-15 -0.6487E-16
     -3.751 -0.4330E-13 -0.3125E-14
     -3.681 -0.1612E-11 -0.1171E-12
     -3.610 -0.4639E-10 -0.3395E-11
     -3.539 -0.1030E-08 -0.7617E-10
     -3.469 -0.1759E-07 -0.1320E-08
     -3.398 -0.2306E-06 -0.1762E-07
     -3.327 -0.2307E-05 -0.1807E-06
     -3.256 -0.1750E-04 -0.1417E-05
     -3.186 -0.9939E-04 -0.8441E-05
     -3.115 -0.4144E-03 -0.3773E-04
     -3.044 -0.1214E-02 -0.1235E-03
     -2.974 -0.2220E-02 -0.2804E-03
     -2.903 -0.1200E-02 -0.3653E-03
     -2.832  0.6175E-02  0.7115E-04
     -2.762  0.2168E-01  0.1603E-02
     -2.691  0.3820E-01  0.4303E-02
     -2.620  0.4320E-01  0.7356E-02
     -2.550  0.3229E-01  0.9638E-02
     -2.479  0.1471E-01  0.1068E-01
     -2.408  0.2196E-02  0.1083E-01
     -2.338 -0.2112E-02  0.1068E-01
     -2.267 -0.1897E-02  0.1055E-01
     -2.196 -0.9657E-03  0.1048E-01
     -2.126 -0.8633E-03  0.1042E-01
     -2.055 -0.2029E-02  0.1028E-01
     -1.984 -0.4109E-02  0.9986E-02
     -1.914 -0.3649E-02  0.9728E-02
     -1.843  0.7454E-02  0.1026E-01
     -1.772  0.3501E-01  0.1273E-01
     -1.702  0.6895E-01  0.1760E-01
     -1.631  0.8485E-01  0.2360E-01
     -1.560  0.7047E-01  0.2858E-01
     -1.490  0.4362E-01  0.3166E-01
     -1.419  0.3077E-01  0.3384E-01
     -1.348  0.3521E-01  0.3632E-01
     -1.278  0.3888E-01  0.3907E-01
     -1.207  0.2963E-01  0.4117E-01
     -1.136  0.1344E-01  0.4212E-01
     -1.066  0.1501E-02  0.4222E-01
     -0.995 -0.3224E-02  0.4199E-01
     -0.924 -0.4687E-02  0.4166E-01
     -0.854 -0.5392E-02  0.4128E-01
     -0.783 -0.1060E-02  0.4121E-01
     -0.712  0.1713E-01  0.4242E-01
     -0.642  0.5022E-01  0.4597E-01
     -0.571  0.8045E-01  0.5165E-01
     -0.500  0.8338E-01  0.5755E-01
     -0.430  0.5591E-01  0.6150E-01
     -0.359  0.2165E-01  0.6303E-01
     -0.288  0.5857E-02  0.6344E-01
     -0.218  0.1404E-01  0.6443E-01
     -0.147  0.3250E-01  0.6673E-01
     -0.076  0.4220E-01  0.6971E-01
     -0.006  0.3466E-01  0.7216E-01
      0.065  0.1749E-01  0.7340E-01
      0.136  0.3271E-02  0.7363E-01
      0.206 -0.3502E-02  0.7338E-01
      0.277 -0.6228E-02  0.7294E-01
      0.348 -0.6956E-02  0.7245E-01
      0.418  0.4276E-03  0.7248E-01
      0.489  0.2661E-01  0.7436E-01
      0.560  0.7111E-01  0.7939E-01
      0.630  0.1110E+00  0.8723E-01
      0.701  0.1183E+00  0.9559E-01
      0.772  0.9196E-01  0.1021E+00
      0.842  0.5990E-01  0.1063E+00
      0.913  0.4405E-01  0.1094E+00
      0.984  0.3904E-01  0.1122E+00
      1.055  0.2985E-01  0.1143E+00
      1.125  0.1455E-01  0.1153E+00
      1.196  0.1171E-02  0.1154E+00
      1.267 -0.6286E-02  0.1150E+00
      1.337 -0.8494E-02  0.1144E+00
      1.408 -0.1180E-02  0.1143E+00
      1.479  0.2591E-01  0.1161E+00
      1.549  0.7264E-01  0.1213E+00
      1.620  0.1140E+00  0.1293E+00
      1.691  0.1187E+00  0.1377E+00
      1.761  0.8845E-01  0.1440E+00
      1.832  0.6042E-01  0.1482E+00
      1.903  0.6242E-01  0.1526E+00
      1.973  0.8219E-01  0.1584E+00
      2.044  0.9125E-01  0.1649E+00
      2.115  0.8037E-01  0.1706E+00
      2.185  0.5878E-01  0.1747E+00
      2.256  0.3545E-01  0.1772E+00
      2.327  0.1513E-01  0.1783E+00
      2.397  0.1715E-02  0.1784E+00
      2.468 -0.4241E-02  0.1781E+00
      2.539 -0.5985E-02  0.1777E+00
      2.609 -0.5004E-02  0.1773E+00
      2.680  0.3138E-02  0.1776E+00
      2.751  0.2552E-01  0.1794E+00
      2.821  0.6232E-01  0.1838E+00
      2.892  0.9928E-01  0.1908E+00
      2.963  0.1136E+00  0.1988E+00
      3.033  0.9372E-01  0.2054E+00
      3.104  0.5257E-01  0.2092E+00
      3.175  0.1585E-01  0.2103E+00
      3.245 -0.2225E-02  0.2101E+00
      3.316 -0.5426E-02  0.2097E+00
      3.387 -0.3705E-02  0.2095E+00
      3.457 -0.3224E-02  0.2092E+00
      3.528 -0.5439E-02  0.2089E+00
      3.599 -0.7429E-02  0.2083E+00
      3.669  0.2405E-03  0.2084E+00
      3.740  0.3020E-01  0.2105E+00
      3.811  0.8355E-01  0.2164E+00
      3.881  0.1392E+00  0.2262E+00
      3.952  0.1676E+00  0.2381E+00
      4.023  0.1566E+00  0.2491E+00
      4.093  0.1197E+00  0.2576E+00
      4.164  0.8121E-01  0.2633E+00
      4.235  0.5567E-01  0.2673E+00
      4.305  0.3953E-01  0.2701E+00
      4.376  0.2290E-01  0.2717E+00
      4.447  0.4925E-02  0.2720E+00
      4.517 -0.5832E-02  0.2716E+00
      4.588  0.1797E-02  0.2718E+00
      4.659  0.3476E-01  0.2742E+00
      4.729  0.8305E-01  0.2801E+00
      4.800  0.1165E+00  0.2883E+00
      4.871  0.1141E+00  0.2964E+00
      4.941  0.9549E-01  0.3031E+00
      5.012  0.1009E+00  0.3103E+00
      5.083  0.1410E+00  0.3202E+00
      5.154  0.1847E+00  0.3333E+00
      5.224  0.1940E+00  0.3470E+00
      5.295  0.1577E+00  0.3581E+00
      5.366  0.9494E-01  0.3648E+00
      5.436  0.3671E-01  0.3674E+00
      5.507  0.2666E-02  0.3676E+00
      5.578 -0.8579E-02  0.3670E+00
      5.648 -0.9315E-02  0.3664E+00
      5.719 -0.7066E-02  0.3659E+00
      5.790  0.1907E-02  0.3660E+00
      5.860  0.2573E-01  0.3678E+00
      5.931  0.6078E-01  0.3721E+00
      6.002  0.8499E-01  0.3781E+00
      6.072  0.7775E-01  0.3836E+00
      6.143  0.4503E-01  0.3868E+00
      6.214  0.1392E-01  0.3878E+00
      6.284  0.5004E-02  0.3881E+00
      6.355  0.1773E-01  0.3894E+00
      6.426  0.3587E-01  0.3919E+00
      6.496  0.4163E-01  0.3949E+00
      6.567  0.2964E-01  0.3970E+00
      6.638  0.9364E-02  0.3976E+00
      6.708 -0.5164E-02  0.3973E+00
      6.779 -0.2134E-02  0.3971E+00
      6.850  0.2687E-01  0.3990E+00
      6.920  0.7650E-01  0.4044E+00
      6.991  0.1197E+00  0.4129E+00
      7.062  0.1318E+00  0.4222E+00
      7.132  0.1223E+00  0.4308E+00
      7.203  0.1195E+00  0.4393E+00
      7.274  0.1276E+00  0.4483E+00
      7.344  0.1254E+00  0.4572E+00
      7.415  0.1013E+00  0.4643E+00
      7.486  0.6482E-01  0.4689E+00
      7.556  0.3006E-01  0.4710E+00
      7.627  0.4879E-02  0.4714E+00
      7.698 -0.7488E-02  0.4708E+00
      7.768 -0.3021E-02  0.4706E+00
      7.839  0.2368E-01  0.4723E+00
      7.910  0.6843E-01  0.4771E+00
      7.980  0.1073E+00  0.4847E+00
      8.051  0.1130E+00  0.4927E+00
      8.122  0.8912E-01  0.4990E+00
      8.192  0.7112E-01  0.5040E+00
      8.263  0.8572E-01  0.5101E+00
      8.334  0.1213E+00  0.5187E+00
      8.404  0.1498E+00  0.5292E+00
      8.475  0.1597E+00  0.5405E+00
      8.546  0.1509E+00  0.5512E+00
      8.616  0.1197E+00  0.5596E+00
      8.687  0.7081E-01  0.5647E+00
      8.758  0.2451E-01  0.5664E+00
      8.828 -0.2314E-02  0.5662E+00
      8.899 -0.1067E-01  0.5655E+00
      8.970 -0.8459E-02  0.5649E+00
      9.040  0.4322E-02  0.5652E+00
      9.111  0.3179E-01  0.5674E+00
      9.182  0.6577E-01  0.5721E+00
      9.252  0.8433E-01  0.5780E+00
      9.323  0.7607E-01  0.5834E+00
      9.394  0.5684E-01  0.5874E+00
      9.465  0.5221E-01  0.5911E+00
      9.535  0.7213E-01  0.5962E+00
      9.606  0.1055E+00  0.6037E+00
      9.677  0.1277E+00  0.6127E+00
      9.747  0.1163E+00  0.6209E+00
      9.818  0.7318E-01  0.6261E+00
      9.889  0.2662E-01  0.6280E+00
      9.959  0.7924E-02  0.6285E+00
     10.030  0.2811E-01  0.6305E+00
     10.101  0.7232E-01  0.6356E+00
     10.171  0.1131E+00  0.6436E+00
     10.242  0.1366E+00  0.6533E+00
     10.313  0.1523E+00  0.6640E+00
     10.383  0.1699E+00  0.6760E+00
     10.454  0.1774E+00  0.6886E+00
     10.525  0.1566E+00  0.6997E+00
     10.595  0.1092E+00  0.7074E+00
     10.666  0.5531E-01  0.7113E+00
     10.737  0.1520E-01  0.7124E+00
     10.807 -0.1388E-02  0.7123E+00
     10.878  0.6208E-02  0.7127E+00
     10.949  0.3306E-01  0.7150E+00
     11.019  0.6909E-01  0.7199E+00
     11.090  0.9802E-01  0.7268E+00
     11.161  0.1019E+00  0.7340E+00
     11.231  0.7613E-01  0.7394E+00
     11.302  0.4268E-01  0.7424E+00
     11.373  0.3665E-01  0.7450E+00
     11.443  0.7234E-01  0.7501E+00
     11.514  0.1255E+00  0.7590E+00
     11.585  0.1560E+00  0.7700E+00
     11.655  0.1497E+00  0.7806E+00
     11.726  0.1275E+00  0.7896E+00
     11.797  0.1113E+00  0.7975E+00
     11.867  0.9990E-01  0.8045E+00
     11.938  0.8229E-01  0.8104E+00
     12.009  0.5607E-01  0.8143E+00
     12.079  0.2716E-01  0.8162E+00
     12.150  0.3773E-02  0.8165E+00
     12.221 -0.4813E-02  0.8162E+00
     12.291  0.1083E-01  0.8169E+00
     12.362  0.5197E-01  0.8206E+00
     12.433  0.9981E-01  0.8277E+00
     12.503  0.1243E+00  0.8364E+00
     12.574  0.1170E+00  0.8447E+00
     12.645  0.1003E+00  0.8518E+00
     12.715  0.9197E-01  0.8583E+00
     12.786  0.8128E-01  0.8641E+00
     12.857  0.5433E-01  0.8679E+00
     12.927  0.1929E-01  0.8693E+00
     12.998 -0.5467E-02  0.8689E+00
     13.069 -0.8550E-02  0.8683E+00
     13.139  0.1594E-01  0.8694E+00
     13.210  0.6712E-01  0.8741E+00
     13.281  0.1262E+00  0.8831E+00
     13.351  0.1632E+00  0.8946E+00
     13.422  0.1632E+00  0.9061E+00
     13.493  0.1361E+00  0.9157E+00
     13.563  0.1007E+00  0.9229E+00
     13.634  0.7045E-01  0.9278E+00
     13.705  0.5131E-01  0.9315E+00
     13.776  0.4306E-01  0.9345E+00
     13.846  0.4073E-01  0.9374E+00
     13.917  0.4193E-01  0.9403E+00
     13.988  0.5192E-01  0.9440E+00
     14.058  0.7302E-01  0.9492E+00
     14.129  0.9507E-01  0.9559E+00
     14.200  0.1089E+00  0.9636E+00
     14.270  0.1181E+00  0.9719E+00
     14.341  0.1253E+00  0.9808E+00
     14.412  0.1219E+00  0.9894E+00
     14.482  0.1019E+00  0.9966E+00
     14.553  0.7138E-01  0.1002E+01
     14.624  0.4042E-01  0.1005E+01
     14.694  0.1608E-01  0.1006E+01
     14.765  0.1819E-02  0.1006E+01
     14.836 -0.3061E-02  0.1006E+01
     14.906 -0.2762E-02  0.1005E+01
     14.977 -0.1328E-02  0.1005E+01
     15.048 -0.4323E-03  0.1005E+01
     15.118 -0.1015E-03  0.1005E+01
     15.189 -0.1769E-04  0.1005E+01
     15.260 -0.2320E-05  0.1005E+01
     15.330 -0.2313E-06  0.1005E+01
     15.401 -0.1762E-07  0.1005E+01
     15.472 -0.1031E-08  0.1005E+01
     15.542 -0.4641E-10  0.1005E+01
     15.613 -0.1612E-11  0.1005E+01
     15.684 -0.4330E-13  0.1005E+01
     15.754 -0.9212E-15  0.1005E+01
     15.825  0.0000E+00  0.1005E+01
     15.896  0.0000E+00  0.1005E+01
     15.966  0.0000E+00  0.1005E+01
     16.037  0.0000E+00  0.1005E+01
     16.108  0.0000E+00  0.1005E+01
     16.178  0.0000E+00  0.1005E+01
     16.249  0.0000E+00  0.1005E+01
     16.320  0.0000E+00  0.1005E+01
     16.390  0.0000E+00  0.1005E+01
     16.461  0.0000E+00  0.1005E+01
     16.532  0.0000E+00  0.1005E+01
