 vasp.5.2.2 15Apr09 complex 
 executed on             LinuxIFC date 2016.12.16  16:02:10
 running on   32 nodes
 distr:  one band on    1 nodes,   32 groups


--------------------------------------------------------------------------------------------------------


 INCAR:
 POTCAR:   PAW_PBE Al 04Jan2001                   
 POTCAR:   PAW_PBE Mg 05Jan2001                   
 POTCAR:   PAW_PBE Al 04Jan2001                   
   VRHFIN =Al: s2p1                                                             
   LEXCH  = PE                                                                  
   EATOM  =    53.5387 eV,    3.9350 Ry                                         
                                                                                
   TITEL  = PAW_PBE Al 04Jan2001                                                
   LULTRA =        F    use ultrasoft PP ?                                      
   IUNSCR =        1    unscreen: 0-lin 1-nonlin 2-no                           
   RPACOR =    1.500    partial core radius                                     
   POMASS =   26.982; ZVAL   =    3.000    mass and valenz                      
   RCORE  =    1.900    outmost cutoff radius                                   
   RWIGS  =    2.650; RWIGS  =    1.402    wigner-seitz radius (au A)           
   ENMAX  =  240.300; ENMIN  =  180.225 eV                                      
   ICORE  =        2    local potential                                         
   LCOR   =        T    correct aug charges                                     
   LPAW   =        T    paw PP                                                  
   EAUG   =  291.052                                                            
   DEXC   =    -.041                                                            
   RMAX   =    2.974    core radius for proj-oper                               
   RAUG   =    1.300    factor for augmentation sphere                          
   RDEP   =    1.966    radius for radial grids                                 
   QCUT   =   -4.203; QGAM   =    8.405    optimization parameters              
                                                                                
   Description                                                                  
     l     E      TYP  RCUT    TYP  RCUT                                        
     0   .000     23  1.900                                                     
     0   .000     23  1.900                                                     
     1   .000     23  1.900                                                     
     1  1.000     23  1.900                                                     
     2   .000      7  1.900                                                     
  local pseudopotential read in
  partial core-charges read in
  atomic valenz-charges read in
  non local Contribution for L=           0  read in
    real space projection operators read in
  non local Contribution for L=           0  read in
    real space projection operators read in
  non local Contribution for L=           1  read in
    real space projection operators read in
  non local Contribution for L=           1  read in
    real space projection operators read in
    PAW grid and wavefunctions read in
 
   number of l-projection  operators is LMAX  =           4
   number of lm-projection operators is LMMAX =           8
 
 POTCAR:   PAW_PBE Mg 05Jan2001                   
   VRHFIN =Mg: s2p0                                                             
   LEXCH  = PE                                                                  
   EATOM  =    23.0029 eV,    1.6907 Ry                                         
                                                                                
   TITEL  = PAW_PBE Mg 05Jan2001                                                
   LULTRA =        F    use ultrasoft PP ?                                      
   IUNSCR =        1    unscreen: 0-lin 1-nonlin 2-no                           
   RPACOR =    2.000    partial core radius                                     
   POMASS =   24.305; ZVAL   =    2.000    mass and valenz                      
   RCORE  =    2.000    outmost cutoff radius                                   
   RWIGS  =    2.880; RWIGS  =    1.524    wigner-seitz radius (au A)           
   ENMAX  =  210.012; ENMIN  =  157.509 eV                                      
   ICORE  =        2    local potential                                         
   LCOR   =        T    correct aug charges                                     
   LPAW   =        T    paw PP                                                  
   EAUG   =  274.554                                                            
   DEXC   =    -.136                                                            
   RMAX   =    3.182    core radius for proj-oper                               
   RAUG   =    1.300    factor for augmentation sphere                          
   RDEP   =    2.025    radius for radial grids                                 
   QCUT   =   -3.929; QGAM   =    7.858    optimization parameters              
                                                                                
   Description                                                                  
     l     E      TYP  RCUT    TYP  RCUT                                        
     0   .000     23  2.000                                                     
     0  2.000     23  2.000                                                     
     1   .000     23  2.000                                                     
     1  2.000     23  2.000                                                     
     2   .000     23  2.000                                                     
  local pseudopotential read in
  partial core-charges read in
  atomic valenz-charges read in
  non local Contribution for L=           0  read in
    real space projection operators read in
  non local Contribution for L=           0  read in
    real space projection operators read in
  non local Contribution for L=           1  read in
    real space projection operators read in
  non local Contribution for L=           1  read in
    real space projection operators read in
    PAW grid and wavefunctions read in
 
   number of l-projection  operators is LMAX  =           4
   number of lm-projection operators is LMMAX =           8
 

 ----------------------------------------------------------------------------- 
|                                                                             |
|  ADVICE TO THIS USER RUNNING 'VASP/VAMP'   (HEAR YOUR MASTER'S VOICE ...):  |
|                                                                             |
|      You have a (more or less) 'large supercell' and for larger cells       |
|      it might be more efficient to use real space projection operators      |
|      So try LREAL= Auto  in the INCAR   file.                               |
|      Mind: If you want to do a very accurate calculations keep the          |
|      reciprocal projection scheme          (i.e. LREAL=.FALSE.)             |
|                                                                             |
 ----------------------------------------------------------------------------- 

 PAW_PBE Al 04Jan2001                   :
 energy of atom  1       EATOM=  -53.5387
 kinetic energy error for atom=    0.0011 (will be added to EATOM!!)
 PAW_PBE Mg 05Jan2001                   :
 energy of atom  2       EATOM=  -23.0029
 kinetic energy error for atom=    0.0002 (will be added to EATOM!!)
 
 
 POSCAR: Mg1 Al32                                
  positions in direct lattice
  velocities in cartesian coordinates
 exchange correlation table for  LEXCH =        8
   RHO(1)=    0.500       N(1)  =     2000
   RHO(2)=  100.500       N(2)  =     4000

 VTST: version 2.03d, (02/18/09)

 CHAIN: initializing optimizer
 
 OPT: Using VASP Conjugate-Gradient optimizer
 CHAIN: Read ICHAIN            0
 


--------------------------------------------------------------------------------------------------------


 ion  position               nearest neighbor table
   1  0.000  0.000  0.021-   2 2.61   4 2.61   6 2.61  12 2.61  15 2.75   7 2.75  11 2.75   3 2.75
                            18 2.85  20 2.85  22 2.85  28 2.85
   2  0.229  0.000  0.250-   1 2.61   4 2.61  12 2.61  17 2.61  11 2.75  27 2.75  19 2.75   3 2.75
                             5 2.85   8 2.85  21 2.85  16 2.85
   3  0.241  0.241  0.009-   1 2.75   2 2.75   4 2.75   8 2.86  10 2.86   9 2.86   5 2.86  18 2.86
                            20 2.86  13 3.03  24 3.03  26 3.03
   4  0.000  0.229  0.250-   1 2.61   2 2.61   6 2.61  17 2.61   7 2.75  23 2.75  19 2.75   3 2.75
                             9 2.85  10 2.85  14 2.85  25 2.85
   5  0.500  0.000  0.026-   8 2.57  16 2.57  24 2.61  32 2.61   2 2.85   6 2.85  11 2.86   3 2.86
                            15 2.86   7 2.86  18 3.15  22 3.15
   6  0.771  0.000  0.250-   1 2.61   4 2.61  12 2.61  17 2.61  15 2.75  31 2.75  23 2.75   7 2.75
                             5 2.85  21 2.85   8 2.85  16 2.85
   7  0.759  0.241  0.009-   1 2.75   4 2.75   6 2.75   9 2.86  20 2.86  14 2.86  22 2.86   5 2.86
                             8 2.86  30 3.03  24 3.03  13 3.03
   8  0.500  0.224  0.250-   5 2.57  21 2.57  13 2.61  29 2.61   6 2.85   2 2.85   3 2.86  19 2.86
                            23 2.86   7 2.86  10 3.15  14 3.15
   9  0.000  0.500  0.026-  10 2.57  14 2.57  26 2.61  30 2.61  12 2.85   4 2.85   7 2.86   3 2.86
                            15 2.86  11 2.86  28 3.15  20 3.15
  10  0.224  0.500  0.250-   9 2.57  25 2.57  13 2.61  29 2.61  12 2.85   4 2.85   3 2.86  19 2.86
                            27 2.86  11 2.86   8 3.15  16 3.15
  11  0.241  0.759  0.009-   1 2.75   2 2.75  12 2.75   5 2.86  18 2.86  16 2.86  28 2.86   9 2.86
                            10 2.86  32 3.03  13 3.03  26 3.03
  12  0.000  0.771  0.250-   1 2.61   2 2.61   6 2.61  17 2.61  15 2.75  31 2.75  27 2.75  11 2.75
                             9 2.85  25 2.85  14 2.85  10 2.85
  13  0.500  0.500  0.083-   8 2.61  10 2.61  14 2.61  16 2.61  33 2.69  29 2.70   3 3.03   7 3.03
                            11 3.03  15 3.03
  14  0.776  0.500  0.250-   9 2.57  25 2.57  13 2.61  29 2.61  12 2.85   4 2.85   7 2.86  23 2.86
                            15 2.86  31 2.86   8 3.15  16 3.15
  15  0.759  0.759  0.009-   1 2.75   6 2.75  12 2.75  22 2.86  28 2.86   9 2.86   5 2.86  14 2.86
                            16 2.86  30 3.03  32 3.03  13 3.03
  16  0.500  0.776  0.250-   5 2.57  21 2.57  13 2.61  29 2.61   6 2.85   2 2.85  27 2.86  11 2.86
                            15 2.86  31 2.86  14 3.15  10 3.15
  17  0.000  0.000  0.479-   2 2.61   4 2.61   6 2.61  12 2.61  31 2.75  27 2.75  23 2.75  19 2.75
                            18 2.85  20 2.85  28 2.85  22 2.85
  18  0.224  0.000  0.750-  20 2.57  28 2.57  24 2.61  32 2.61   1 2.85  17 2.85  11 2.86  27 2.86
                            19 2.86   3 2.86   5 3.15  21 3.15
  19  0.241  0.241  0.491-   2 2.75   4 2.75  17 2.75  10 2.86   8 2.86  18 2.86  20 2.86  21 2.86
                            25 2.86  24 3.03  26 3.03  29 3.03
  20  0.000  0.224  0.750-  18 2.57  22 2.57  26 2.61  30 2.61   1 2.85  17 2.85   7 2.86  23 2.86
                             3 2.86  19 2.86   9 3.15  25 3.15
  21  0.500  0.000  0.474-   8 2.57  16 2.57  24 2.61  32 2.61   2 2.85   6 2.85  27 2.86  19 2.86
                            31 2.86  23 2.86  22 3.15  18 3.15
  22  0.776  0.000  0.750-  20 2.57  28 2.57  24 2.61  32 2.61   1 2.85  17 2.85  31 2.86  15 2.86
                             7 2.86  23 2.86  21 3.15   5 3.15
  23  0.759  0.241  0.491-   4 2.75  17 2.75   6 2.75  20 2.86  25 2.86  22 2.86  14 2.86   8 2.86
                            21 2.86  30 3.03  29 3.03  24 3.03
  24  0.500  0.167  0.750-   5 2.61  18 2.61  21 2.61  22 2.61  33 2.69  32 2.70   3 3.03  19 3.03
                             7 3.03  23 3.03
  25  0.000  0.500  0.474-  10 2.57  14 2.57  26 2.61  30 2.61  12 2.85   4 2.85  23 2.86  19 2.86
                            31 2.86  27 2.86  20 3.15  28 3.15
  26  0.167  0.500  0.750-   9 2.61  20 2.61  25 2.61  28 2.61  33 2.69  30 2.70  19 3.03   3 3.03
                            27 3.03  11 3.03
  27  0.241  0.759  0.491-   2 2.75  17 2.75  12 2.75  18 2.86  21 2.86  16 2.86  28 2.86  25 2.86
                            10 2.86  32 3.03  29 3.03  26 3.03
  28  0.000  0.776  0.750-  18 2.57  22 2.57  26 2.61  30 2.61   1 2.85  17 2.85  15 2.86  31 2.86
                            11 2.86  27 2.86   9 3.15  25 3.15
  29  0.500  0.500  0.417-   8 2.61  10 2.61  14 2.61  16 2.61  33 2.69  13 2.70  19 3.03  27 3.03
                            23 3.03  31 3.03
  30  0.833  0.500  0.750-   9 2.61  20 2.61  25 2.61  28 2.61  33 2.69  26 2.70   7 3.03  23 3.03
                            31 3.03  15 3.03
  31  0.759  0.759  0.491-  17 2.75  12 2.75   6 2.75  22 2.86  28 2.86  25 2.86  21 2.86  16 2.86
                            14 2.86  30 3.03  32 3.03  29 3.03
  32  0.500  0.833  0.750-   5 2.61  18 2.61  21 2.61  22 2.61  33 2.69  24 2.70  27 3.03  11 3.03
                            31 3.03  15 3.03
  33  0.500  0.500  0.750-  13 2.69  24 2.69  26 2.69  29 2.69  30 2.69  32 2.69
 
  LATTYP: Found a simple cubic cell.
 ALAT       =     8.0870400000
  
  Lattice vectors:
  
 A1 = (   8.0870400000,   0.0000000000,   0.0000000000)
 A2 = (   0.0000000000,   8.0870400000,   0.0000000000)
 A3 = (   0.0000000000,   0.0000000000,   8.0870400000)
 Subroutine PRICEL returns:
 Original cell was already a primitive cell.
 

Analysis of symmetry for initial positions (statically):

 Routine SETGRP: Setting up the symmetry group for a 
 simple cubic supercell.


 Subroutine GETGRP returns: Found 48 space group operations
 (whereof  8 operations were pure point group operations)
 out of a pool of 48 trial point group operations.


The static configuration has the point symmetry C_4v.
 The point group associated with its full space group is O_h .

Analysis of symmetry for dynamics (positions and initial velocities):

 Subroutine DYNSYM returns: Found 48 space group operations
 (whereof  8 operations were pure point group operations)
 out of a pool of 48 trial space group operations
 (whereof  8 operations were pure point group operations)
 and found also     1 'primitive' translations


The dynamic configuration has the point symmetry C_4v.
 The point group associated with its full space group is O_h .
 
 
 KPOINTS: Automatic kpoint scheme                 

Automatic generation of k-mesh.
 
 Subroutine IBZKPT returns following result:
 ===========================================
 
 Found      1 irreducible k-points:
 
 Following reciprocal coordinates:
            Coordinates               Weight
  0.250000  0.250000  0.250000      8.000000
 
 Following cartesian coordinates:
            Coordinates               Weight
  0.030914  0.030914  0.030914      8.000000
 


--------------------------------------------------------------------------------------------------------




 Dimension of arrays:
   k-points           NKPTS =      1   k-points in BZ     NKDIM =      1   number of bands    NBANDS=     96
   number of dos      NEDOS =    301   number of ions     NIONS =     33
   non local maximal  LDIM  =      4   non local SUM 2l+1 LMDIM =      8
   total plane-waves  NPLWV = 110592
   max r-space proj   IRMAX =      1   max aug-charges    IRDMAX=   9081
   dimension x,y,z NGX =    48 NGY =   48 NGZ =   48
   dimension x,y,z NGXF=    96 NGYF=   96 NGZF=   96
   support grid    NGXF=    96 NGYF=   96 NGZF=   96
   ions per type =              32   1
 NGX,Y,Z   is equivalent  to a cutoff of   9.87,  9.87,  9.87 a.u.
 NGXF,Y,Z  is equivalent  to a cutoff of  19.73, 19.73, 19.73 a.u.


 I would recommend the setting:
   dimension x,y,z NGX =    46 NGY =   46 NGZ =   46
 SYSTEM =  unknown system                          
 POSCAR =  Mg1 Al32                                

 Startparameter for this run:
   NWRITE =      2    write-flag & timer
   PREC   = accura    medium, high low
   ISTART =      0    job   : 0-new  1-cont  2-samecut
   ICHARG =      2    charge: 1-file 2-atom 10-const
   ISPIN  =      1    spin polarized calculation?
   LNONCOLLINEAR =      F non collinear calculations
   LSORBIT =      F    spin-orbit coupling
   INIWAV =      1    electr: 0-lowe 1-rand  2-diag
   LASPH  =      F    aspherical Exc in radial PAW
   METAGGA=      F    non-selfconsistent MetaGGA calc.

 Electronic Relaxation 1
   ENCUT  =  300.0 eV  22.05 Ry    4.70 a.u.  11.42 11.42 11.42*2*pi/ulx,y,z
   ENINI  =  300.0     initial cutoff
   ENAUG  =  291.1 eV  augmentation charge cutoff
   NELM   =     60;   NELMIN=  2; NELMDL=-12     # of ELM steps 
   EDIFF  = 0.1E-03   stopping-criterion for ELM
   LREAL  =      F    real-space projection
   LCOMPAT=      F    compatible to vasp.4.4
   LREAL_COMPAT= F    compatible to vasp.4.5.1-3
   GGA_COMPAT  = T    GGA compatible to vasp.4.4-vasp.4.6
   LMAXPAW     = -100 max onsite density
   LMAXMIX     =    2 max onsite mixed and CHGCAR
   VOSKOWN=      0    Vosko Wilk Nusair interpolation
   ROPT   =    0.00000   0.00000
 Ionic relaxation
   EDIFFG = 0.5E-01   stopping-criterion for IOM
   NSW    =    191    number of steps for IOM
   NBLOCK =      1;   KBLOCK =    191    inner block; outer block 
   IBRION =      2    ionic relax: 0-MD 1-quasi-New 2-CG
   NFREE  =      1    steps in history (QN), initial steepest desc. (CG)
   ISIF   =      2    stress and relaxation
   IWAVPR =     11    prediction:  0-non 1-charg 2-wave 3-comb
   ISYM   =      2    0-nonsym 1-usesym 2-fastsym
   LCORR  =      T    Harris-Foulkes like correction to forces

   POTIM  = 0.5000    time-step for ionic-motion
   TEIN   =    0.0    initial temperature
   TEBEG  =    0.0;   TEEND  =   0.0 temperature during run
   SMASS  =  -3.00    Nose mass-parameter (am)
   estimated Nose-frequenzy (Omega)   =  0.10E-29 period in steps =****** mass=  -0.149E-26a.u.
   NPACO  =    256;   APACO  = 16.0  distance and # of slots for P.C.
   PSTRESS=    0.0 pullay stress

  Mass of Ions in am
   POMASS =  26.98 24.30
  Ionic Valenz
   ZVAL   =   3.00  2.00
  Atomic Wigner-Seitz radii
   RWIGS  =  -1.00 -1.00
   NELECT =      98.0000    total number of electrons
   NUPDOWN=      -1.0000    fix difference up-down

 DOS related values:
   EMIN   =  10.00;   EMAX   =-10.00  energy-range for DOS
   EFERMI =   0.00
   ISMEAR =     1;   SIGMA  =   0.20  broadening in eV -4-tet -1-fermi 0-gaus

 Electronic relaxation 2 (details)
   IALGO  =     48    algorithm
   LDIAG  =      T    sub-space diagonalisation
   IMIX   =      4    mixing-type and parameters
     AMIX     =   0.40;   BMIX     =  1.00
     AMIX_MAG =   1.60;   BMIX_MAG =  1.00
     AMIN     =   0.10
     WC   =   100.;   INIMIX=   1;  MIXPRE=   1

 Intra band minimization:
   WEIMIN = 0.0010     energy-eigenvalue tresh-hold
   EBREAK =  0.38E-06  absolut break condition
   DEPER  =   0.30     relativ break condition  

   TIME   =   0.40     timestep for ELM

  volume/ion in A,a.u.               =      16.03       108.16
  Fermi-wavevector in a.u.,A,eV,Ry     =   0.933313  1.763706 11.851667  0.871073
  Thomas-Fermi vector in A             =   2.060001
 
 Write flags
   LWAVE  =      F    write WAVECAR
   LCHARG =      F    write CHGCAR
   LVTOT  =      F    write LOCPOT, local potential
   LELF   =      F    write electronic localiz. function (ELF)
   LORBIT =      0    0 simple, 1 ext, 2 COOP (PROOUT)


 Dipole corrections
   LMONO  =      F    monopole corrections only (constant potential shift)
   LDIPOL =      F    correct potential (dipole corrections)
   IDIPOL =      0    1-x, 2-y, 3-z, 4-all directions 
   EPSILON=  1.0000000 bulk dielectric constant

 Exchange correlation treatment:
   GGA     =    --    GGA type
   LEXCH   =     8    internal setting for exchange type
   VOSKOWN=      0    Vosko Wilk Nusair interpolation
   LHFCALC =     F    Hartree Fock is set to
   LHFONE  =     F    Hartree Fock one center treatment
   AEXX    =    0.0000 exact exchange contribution

 Linear response parameters
   LEPSILON=     F    determine dielectric tensor
   LRPA    =     F    only Hartree local field effects (RPA)
   LNABLA  =     F    use nabla operator in PAW spheres
   LVEL    =     F    velocity operator in full k-point grid
   LINTERFAST=   F  fast interpolation
   KINTER  =     0    interpolate to denser k-point grid
   CSHIFT  =0.1000    complex shift for real part using Kramers Kronig
   OMEGAMAX=  -1.0    maximum frequency

 Orbital magnetization related:
   ORBITALMAG=     F  switch on orbital magnetization
   LCHIMAG   =     F  perturbation theory with respect to B field



--------------------------------------------------------------------------------------------------------


 conjugate gradient relaxation of ions
 charge density and potential will be updated during run
 non-spin polarized calculation
 RMM-DIIS sequential band-by-band
 perform sub-space diagonalisation
    before iterative eigenvector-optimisation
 modified Broyden-mixing scheme, WC =      100.0
 initial mixing is a Kerker type mixing with AMIX =  0.4000 and BMIX =      1.0000
 Hartree-type preconditioning will be used
 using additional bands           47
 reciprocal scheme for non local part
 use partial core corrections
 calculate Harris-corrections to forces 
   (improved forces if not selfconsistent)
 use gradient corrections 
 use of overlap-Matrix (Vanderbilt PP)
 Methfessel and Paxton  Order N= 1 SIGMA  =   0.20


--------------------------------------------------------------------------------------------------------


  energy-cutoff  :      300.00
  volume of cell :      528.89
      direct lattice vectors                 reciprocal lattice vectors
     8.087040000  0.000000000  0.000000000     0.123654638  0.000000000  0.000000000
     0.000000000  8.087040000  0.000000000     0.000000000  0.123654638  0.000000000
     0.000000000  0.000000000  8.087040000     0.000000000  0.000000000  0.123654638

  length of vectors
     8.087040000  8.087040000  8.087040000     0.123654638  0.123654638  0.123654638


 
 k-points in units of 2pi/SCALE and weight: Automatic kpoint scheme                 
   0.03091366  0.03091366  0.03091366       1.000
 
 k-points in reciprocal lattice and weights: Automatic kpoint scheme                 
   0.25000000  0.25000000  0.25000000       1.000
 
 position of ions in fractional coordinates (direct lattice) 
   0.00000000  0.00000000  0.02138700
   0.22861300  0.00000000  0.25000000
   0.24055100  0.24055100  0.00944900
   0.00000000  0.22861300  0.25000000
   0.50000000  0.00000000  0.02564500
   0.77138700  0.00000000  0.25000000
   0.75944900  0.24055100  0.00944900
   0.50000000  0.22435500  0.25000000
   0.00000000  0.50000000  0.02564500
   0.22435500  0.50000000  0.25000000
   0.24055100  0.75944900  0.00944900
   0.00000000  0.77138700  0.25000000
   0.50000000  0.50000000  0.08301600
   0.77564500  0.50000000  0.25000000
   0.75944900  0.75944900  0.00944900
   0.50000000  0.77564500  0.25000000
   0.00000000  0.00000000  0.47861300
   0.22435500  0.00000000  0.75000000
   0.24055100  0.24055100  0.49055100
   0.00000000  0.22435500  0.75000000
   0.50000000  0.00000000  0.47435500
   0.77564500  0.00000000  0.75000000
   0.75944900  0.24055100  0.49055100
   0.50000000  0.16698400  0.75000000
   0.00000000  0.50000000  0.47435500
   0.16698400  0.50000000  0.75000000
   0.24055100  0.75944900  0.49055100
   0.00000000  0.77564500  0.75000000
   0.50000000  0.50000000  0.41698400
   0.83301600  0.50000000  0.75000000
   0.75944900  0.75944900  0.49055100
   0.50000000  0.83301600  0.75000000
   0.50000000  0.50000000  0.75000000
 
 position of ions in cartesian coordinates  (Angst):
   0.00000000  0.00000000  0.17295752
   1.84880248  0.00000000  2.02176000
   1.94534556  1.94534556  0.07641444
   0.00000000  1.84880248  2.02176000
   4.04352000  0.00000000  0.20739214
   6.23823752  0.00000000  2.02176000
   6.14169444  1.94534556  0.07641444
   4.04352000  1.81436786  2.02176000
   0.00000000  4.04352000  0.20739214
   1.81436786  4.04352000  2.02176000
   1.94534556  6.14169444  0.07641444
   0.00000000  6.23823752  2.02176000
   4.04352000  4.04352000  0.67135371
   6.27267214  4.04352000  2.02176000
   6.14169444  6.14169444  0.07641444
   4.04352000  6.27267214  2.02176000
   0.00000000  0.00000000  3.87056248
   1.81436786  0.00000000  6.06528000
   1.94534556  1.94534556  3.96710556
   0.00000000  1.81436786  6.06528000
   4.04352000  0.00000000  3.83612786
   6.27267214  0.00000000  6.06528000
   6.14169444  1.94534556  3.96710556
   4.04352000  1.35040629  6.06528000
   0.00000000  4.04352000  3.83612786
   1.35040629  4.04352000  6.06528000
   1.94534556  6.14169444  3.96710556
   0.00000000  6.27267214  6.06528000
   4.04352000  4.04352000  3.37216629
   6.73663371  4.04352000  6.06528000
   6.14169444  6.14169444  3.96710556
   4.04352000  6.73663371  6.06528000
   4.04352000  4.04352000  6.06528000
 


--------------------------------------------------------------------------------------------------------


 k-point  1 :  0.25000.25000.2500  plane waves:    6238

 maximum and minimum number of plane-waves per node :    6238   6238

 maximum number of plane-waves:    6238
 maximal index in each direction: 
   IXMAX= 11   IYMAX= 11   IZMAX= 11
   IXMIN=-11   IYMIN=-11   IZMIN=-11

 NGX is ok and might be reduce to  46
 NGY is ok and might be reduce to  46
 NGZ is ok and might be reduce to  46

 serial   3D FFT for wavefunctions
 parallel 3D FFT for charge:
    minimum data exchange during FFTs selected (reduces bandwidth)


 total amount of memory used by VASP on root node  55665. kBytes
========================================================================

   base      :    30000. kBytes
   nonl-proj :     4093. kBytes
   fftplans  :     1413. kBytes
   grid      :    19745. kBytes
   one-center:      101. kBytes
   wavefun   :      313. kBytes
 
 Broyden mixing: mesh for mixing (old mesh)
   NGX = 23   NGY = 23   NGZ = 23
  (NGX  = 96   NGY  = 96   NGZ  = 96)
  gives a total of  12167 points

 initial charge density was supplied:
 charge density of overlapping atoms calculated
 number of electron   98.0000000 magnetization 
 keeping initial charge density in first step


--------------------------------------------------------------------------------------------------------


 Maximum index for augmentation-charges          483 (set IRDMAX)


--------------------------------------------------------------------------------------------------------


 First call to EWALD:  gamma=   0.219
 Maximum number of real-space cells 3x 3x 3
 Maximum number of reciprocal cells 3x 3x 3

    FEWALD:  cpu time    0.02: real time    0.02
   RESPFUN:  cpu time    0.00: real time    0.00


----------------------------------------- Iteration    1(   1)  ---------------------------------------


    POTLOK:  cpu time    0.09: real time    0.10
    SETDIJ:  cpu time    0.01: real time    0.01
    EDDIAG:  cpu time    0.09: real time    0.09
  RMM-DIIS:  cpu time    0.18: real time    0.18
    ORTHCH:  cpu time    0.01: real time    0.01
       DOS:  cpu time    0.00: real time    0.00
    --------------------------------------------
      LOOP:  cpu time    0.38: real time    0.40

 eigenvalue-minimisations  :    96
 total energy-change (2. order) : 0.1718894E+03  (-0.1471611E+04)
 number of electron   98.0000000 magnetization 
 augmentation part    98.0000000 magnetization 

 Free energy of the ion-electron system (eV)
  ---------------------------------------------------
  alpha Z        PSCENC =        -8.27958290
  Ewald energy   TEWEN  =     -2349.00126995
  -1/2 Hartree   DENC   =       -39.58108495
  -exchange  EXHF       =         0.00000000
  -V(xc)+E(xc)   XCENC  =      -845.08457720
  PAW double counting   =      1149.32568210     -115.70169129
  entropy T*S    EENTRO =         0.04128778
  eigenvalues    EBANDS =       643.96397260
  atomic energy  EATOM  =      1736.20668909
  ---------------------------------------------------
  free energy    TOTEN  =       171.88942528 eV

  energy without entropy =      171.84813750  energy(sigma->0) =      171.87566269


--------------------------------------------------------------------------------------------------------




----------------------------------------- Iteration    1(   2)  ---------------------------------------


    EDDIAG:  cpu time    0.09: real time    0.09
  RMM-DIIS:  cpu time    0.17: real time    0.17
    ORTHCH:  cpu time    0.01: real time    0.01
       DOS:  cpu time    0.00: real time    0.00
    --------------------------------------------
      LOOP:  cpu time    0.27: real time    0.28

 eigenvalue-minimisations  :    96
 total energy-change (2. order) :-0.2324384E+03  (-0.2174934E+03)
 number of electron   98.0000000 magnetization 
 augmentation part    98.0000000 magnetization 

 Free energy of the ion-electron system (eV)
  ---------------------------------------------------
  alpha Z        PSCENC =        -8.27958290
  Ewald energy   TEWEN  =     -2349.00126995
  -1/2 Hartree   DENC   =       -39.58108495
  -exchange  EXHF       =         0.00000000
  -V(xc)+E(xc)   XCENC  =      -845.08457720
  PAW double counting   =      1149.32568210     -115.70169129
  entropy T*S    EENTRO =         0.03525728
  eigenvalues    EBANDS =       411.53163466
  atomic energy  EATOM  =      1736.20668909
  ---------------------------------------------------
  free energy    TOTEN  =       -60.54894316 eV

  energy without entropy =      -60.58420044  energy(sigma->0) =      -60.56069559


--------------------------------------------------------------------------------------------------------




----------------------------------------- Iteration    1(   3)  ---------------------------------------


    EDDIAG:  cpu time    0.09: real time    0.09
  RMM-DIIS:  cpu time    0.17: real time    0.17
    ORTHCH:  cpu time    0.01: real time    0.01
       DOS:  cpu time    0.00: real time    0.00
    --------------------------------------------
      LOOP:  cpu time    0.27: real time    0.28

 eigenvalue-minimisations  :    96
 total energy-change (2. order) :-0.4316157E+02  (-0.3683322E+02)
 number of electron   98.0000000 magnetization 
 augmentation part    98.0000000 magnetization 

 Free energy of the ion-electron system (eV)
  ---------------------------------------------------
  alpha Z        PSCENC =        -8.27958290
  Ewald energy   TEWEN  =     -2349.00126995
  -1/2 Hartree   DENC   =       -39.58108495
  -exchange  EXHF       =         0.00000000
  -V(xc)+E(xc)   XCENC  =      -845.08457720
  PAW double counting   =      1149.32568210     -115.70169129
  entropy T*S    EENTRO =        -0.12199291
  eigenvalues    EBANDS =       368.52731818
  atomic energy  EATOM  =      1736.20668909
  ---------------------------------------------------
  free energy    TOTEN  =      -103.71050983 eV

  energy without entropy =     -103.58851692  energy(sigma->0) =     -103.66984553


--------------------------------------------------------------------------------------------------------




----------------------------------------- Iteration    1(   4)  ---------------------------------------


    EDDIAG:  cpu time    0.09: real time    0.09
  RMM-DIIS:  cpu time    0.17: real time    0.17
    ORTHCH:  cpu time    0.01: real time    0.01
       DOS:  cpu time    0.00: real time    0.00
    --------------------------------------------
      LOOP:  cpu time    0.27: real time    0.28

 eigenvalue-minimisations  :    96
 total energy-change (2. order) :-0.1014335E+02  (-0.6657426E+01)
 number of electron   98.0000000 magnetization 
 augmentation part    98.0000000 magnetization 

 Free energy of the ion-electron system (eV)
  ---------------------------------------------------
  alpha Z        PSCENC =        -8.27958290
  Ewald energy   TEWEN  =     -2349.00126995
  -1/2 Hartree   DENC   =       -39.58108495
  -exchange  EXHF       =         0.00000000
  -V(xc)+E(xc)   XCENC  =      -845.08457720
  PAW double counting   =      1149.32568210     -115.70169129
  entropy T*S    EENTRO =         0.02622286
  eigenvalues    EBANDS =       358.23575520
  atomic energy  EATOM  =      1736.20668909
  ---------------------------------------------------
  free energy    TOTEN  =      -113.85385704 eV

  energy without entropy =     -113.88007990  energy(sigma->0) =     -113.86259800


--------------------------------------------------------------------------------------------------------




----------------------------------------- Iteration    1(   5)  ---------------------------------------


    EDDIAG:  cpu time    0.09: real time    0.09
  RMM-DIIS:  cpu time    0.17: real time    0.17
    ORTHCH:  cpu time    0.01: real time    0.01
       DOS:  cpu time    0.00: real time    0.00
    --------------------------------------------
      LOOP:  cpu time    0.27: real time    0.28

 eigenvalue-minimisations  :    96
 total energy-change (2. order) :-0.2249193E+01  (-0.1355755E+01)
 number of electron   98.0000000 magnetization 
 augmentation part    98.0000000 magnetization 

 Free energy of the ion-electron system (eV)
  ---------------------------------------------------
  alpha Z        PSCENC =        -8.27958290
  Ewald energy   TEWEN  =     -2349.00126995
  -1/2 Hartree   DENC   =       -39.58108495
  -exchange  EXHF       =         0.00000000
  -V(xc)+E(xc)   XCENC  =      -845.08457720
  PAW double counting   =      1149.32568210     -115.70169129
  entropy T*S    EENTRO =        -0.15658889
  eigenvalues    EBANDS =       356.16937373
  atomic energy  EATOM  =      1736.20668909
  ---------------------------------------------------
  free energy    TOTEN  =      -116.10305026 eV

  energy without entropy =     -115.94646137  energy(sigma->0) =     -116.05085396


--------------------------------------------------------------------------------------------------------




----------------------------------------- Iteration    1(   6)  ---------------------------------------


    EDDIAG:  cpu time    0.09: real time    0.09
  RMM-DIIS:  cpu time    0.17: real time    0.17
    ORTHCH:  cpu time    0.01: real time    0.01
       DOS:  cpu time    0.00: real time    0.00
    --------------------------------------------
      LOOP:  cpu time    0.27: real time    0.28

 eigenvalue-minimisations  :    96
 total energy-change (2. order) :-0.4906849E+00  (-0.3324525E+00)
 number of electron   98.0000000 magnetization 
 augmentation part    98.0000000 magnetization 

 Free energy of the ion-electron system (eV)
  ---------------------------------------------------
  alpha Z        PSCENC =        -8.27958290
  Ewald energy   TEWEN  =     -2349.00126995
  -1/2 Hartree   DENC   =       -39.58108495
  -exchange  EXHF       =         0.00000000
  -V(xc)+E(xc)   XCENC  =      -845.08457720
  PAW double counting   =      1149.32568210     -115.70169129
  entropy T*S    EENTRO =        -0.16591059
  eigenvalues    EBANDS =       355.68801048
  atomic energy  EATOM  =      1736.20668909
  ---------------------------------------------------
  free energy    TOTEN  =      -116.59373520 eV

  energy without entropy =     -116.42782462  energy(sigma->0) =     -116.53843168


--------------------------------------------------------------------------------------------------------




----------------------------------------- Iteration    1(   7)  ---------------------------------------


    EDDIAG:  cpu time    0.09: real time    0.09
  RMM-DIIS:  cpu time    0.17: real time    0.17
    ORTHCH:  cpu time    0.01: real time    0.01
       DOS:  cpu time    0.00: real time    0.00
    --------------------------------------------
      LOOP:  cpu time    0.27: real time    0.28

 eigenvalue-minimisations  :    96
 total energy-change (2. order) :-0.1048763E+00  (-0.8099532E-01)
 number of electron   98.0000000 magnetization 
 augmentation part    98.0000000 magnetization 

 Free energy of the ion-electron system (eV)
  ---------------------------------------------------
  alpha Z        PSCENC =        -8.27958290
  Ewald energy   TEWEN  =     -2349.00126995
  -1/2 Hartree   DENC   =       -39.58108495
  -exchange  EXHF       =         0.00000000
  -V(xc)+E(xc)   XCENC  =      -845.08457720
  PAW double counting   =      1149.32568210     -115.70169129
  entropy T*S    EENTRO =        -0.16302881
  eigenvalues    EBANDS =       355.58025240
  atomic energy  EATOM  =      1736.20668909
  ---------------------------------------------------
  free energy    TOTEN  =      -116.69861150 eV

  energy without entropy =     -116.53558270  energy(sigma->0) =     -116.64426857


--------------------------------------------------------------------------------------------------------




----------------------------------------- Iteration    1(   8)  ---------------------------------------


    EDDIAG:  cpu time    0.09: real time    0.09
  RMM-DIIS:  cpu time    0.17: real time    0.17
    ORTHCH:  cpu time    0.01: real time    0.01
       DOS:  cpu time    0.00: real time    0.00
    --------------------------------------------
      LOOP:  cpu time    0.27: real time    0.28

 eigenvalue-minimisations  :    96
 total energy-change (2. order) :-0.2453824E-01  (-0.2097544E-01)
 number of electron   98.0000000 magnetization 
 augmentation part    98.0000000 magnetization 

 Free energy of the ion-electron system (eV)
  ---------------------------------------------------
  alpha Z        PSCENC =        -8.27958290
  Ewald energy   TEWEN  =     -2349.00126995
  -1/2 Hartree   DENC   =       -39.58108495
  -exchange  EXHF       =         0.00000000
  -V(xc)+E(xc)   XCENC  =      -845.08457720
  PAW double counting   =      1149.32568210     -115.70169129
  entropy T*S    EENTRO =        -0.16252936
  eigenvalues    EBANDS =       355.55521472
  atomic energy  EATOM  =      1736.20668909
  ---------------------------------------------------
  free energy    TOTEN  =      -116.72314974 eV

  energy without entropy =     -116.56062039  energy(sigma->0) =     -116.66897329


--------------------------------------------------------------------------------------------------------




----------------------------------------- Iteration    1(   9)  ---------------------------------------


    EDDIAG:  cpu time    0.09: real time    0.09
  RMM-DIIS:  cpu time    0.36: real time    0.36
    ORTHCH:  cpu time    0.01: real time    0.01
       DOS:  cpu time    0.00: real time    0.00
    --------------------------------------------
      LOOP:  cpu time    0.46: real time    0.46

 eigenvalue-minimisations  :   201
 total energy-change (2. order) :-0.7971761E-02  (-0.7408507E-02)
 number of electron   98.0000000 magnetization 
 augmentation part    98.0000000 magnetization 

 Free energy of the ion-electron system (eV)
  ---------------------------------------------------
  alpha Z        PSCENC =        -8.27958290
  Ewald energy   TEWEN  =     -2349.00126995
  -1/2 Hartree   DENC   =       -39.58108495
  -exchange  EXHF       =         0.00000000
  -V(xc)+E(xc)   XCENC  =      -845.08457720
  PAW double counting   =      1149.32568210     -115.70169129
  entropy T*S    EENTRO =        -0.16237829
  eigenvalues    EBANDS =       355.54709188
  atomic energy  EATOM  =      1736.20668909
  ---------------------------------------------------
  free energy    TOTEN  =      -116.73112150 eV

  energy without entropy =     -116.56874322  energy(sigma->0) =     -116.67699541


--------------------------------------------------------------------------------------------------------




----------------------------------------- Iteration    1(  10)  ---------------------------------------


    EDDIAG:  cpu time    0.09: real time    0.09
  RMM-DIIS:  cpu time    0.36: real time    0.36
    ORTHCH:  cpu time    0.01: real time    0.01
       DOS:  cpu time    0.00: real time    0.00
    --------------------------------------------
      LOOP:  cpu time    0.46: real time    0.47

 eigenvalue-minimisations  :   193
 total energy-change (2. order) :-0.8861114E-03  (-0.7945703E-03)
 number of electron   98.0000000 magnetization 
 augmentation part    98.0000000 magnetization 

 Free energy of the ion-electron system (eV)
  ---------------------------------------------------
  alpha Z        PSCENC =        -8.27958290
  Ewald energy   TEWEN  =     -2349.00126995
  -1/2 Hartree   DENC   =       -39.58108495
  -exchange  EXHF       =         0.00000000
  -V(xc)+E(xc)   XCENC  =      -845.08457720
  PAW double counting   =      1149.32568210     -115.70169129
  entropy T*S    EENTRO =        -0.16234529
  eigenvalues    EBANDS =       355.54617277
  atomic energy  EATOM  =      1736.20668909
  ---------------------------------------------------
  free energy    TOTEN  =      -116.73200762 eV

  energy without entropy =     -116.56966233  energy(sigma->0) =     -116.67789252


--------------------------------------------------------------------------------------------------------




----------------------------------------- Iteration    1(  11)  ---------------------------------------


    EDDIAG:  cpu time    0.09: real time    0.09
  RMM-DIIS:  cpu time    0.31: real time    0.31
    ORTHCH:  cpu time    0.01: real time    0.01
       DOS:  cpu time    0.00: real time    0.00
    --------------------------------------------
      LOOP:  cpu time    0.40: real time    0.41

 eigenvalue-minimisations  :   144
 total energy-change (2. order) :-0.2457706E-04  (-0.1952569E-04)
 number of electron   98.0000000 magnetization 
 augmentation part    98.0000000 magnetization 

 Free energy of the ion-electron system (eV)
  ---------------------------------------------------
  alpha Z        PSCENC =        -8.27958290
  Ewald energy   TEWEN  =     -2349.00126995
  -1/2 Hartree   DENC   =       -39.58108495
  -exchange  EXHF       =         0.00000000
  -V(xc)+E(xc)   XCENC  =      -845.08457720
  PAW double counting   =      1149.32568210     -115.70169129
  entropy T*S    EENTRO =        -0.16234431
  eigenvalues    EBANDS =       355.54614721
  atomic energy  EATOM  =      1736.20668909
  ---------------------------------------------------
  free energy    TOTEN  =      -116.73203219 eV

  energy without entropy =     -116.56968789  energy(sigma->0) =     -116.67791742


--------------------------------------------------------------------------------------------------------




----------------------------------------- Iteration    1(  12)  ---------------------------------------


    EDDIAG:  cpu time    0.09: real time    0.11
  RMM-DIIS:  cpu time    0.26: real time    0.26
    ORTHCH:  cpu time    0.01: real time    0.01
       DOS:  cpu time    0.00: real time    0.00
    CHARGE:  cpu time    0.13: real time    0.13
    MIXING:  cpu time    0.00: real time    0.00
    --------------------------------------------
      LOOP:  cpu time    0.49: real time    0.51

 eigenvalue-minimisations  :   123
 total energy-change (2. order) :-0.3309407E-05  (-0.3150000E-05)
 number of electron   97.9999994 magnetization 
 augmentation part    -1.1611465 magnetization 

 Broyden mixing:
  rms(total) = 0.64616E+00    rms(broyden)= 0.64615E+00
  rms(prec ) = 0.14194E+01
  weight for this iteration     100.00

 Free energy of the ion-electron system (eV)
  ---------------------------------------------------
  alpha Z        PSCENC =        -8.27958290
  Ewald energy   TEWEN  =     -2349.00126995
  -1/2 Hartree   DENC   =       -39.58108495
  -exchange  EXHF       =         0.00000000
  -V(xc)+E(xc)   XCENC  =      -845.08457720
  PAW double counting   =      1149.32568210     -115.70169129
  entropy T*S    EENTRO =        -0.16234416
  eigenvalues    EBANDS =       355.54614376
  atomic energy  EATOM  =      1736.20668909
  ---------------------------------------------------
  free energy    TOTEN  =      -116.73203550 eV

  energy without entropy =     -116.56969134  energy(sigma->0) =     -116.67792078


--------------------------------------------------------------------------------------------------------




----------------------------------------- Iteration    1(  13)  ---------------------------------------


    POTLOK:  cpu time    0.06: real time    0.06
    SETDIJ:  cpu time    0.01: real time    0.01
    EDDIAG:  cpu time    0.09: real time    0.09
  RMM-DIIS:  cpu time    0.31: real time    0.31
    ORTHCH:  cpu time    0.01: real time    0.01
       DOS:  cpu time    0.00: real time    0.00
    CHARGE:  cpu time    0.11: real time    0.11
    MIXING:  cpu time    0.00: real time    0.00
    --------------------------------------------
      LOOP:  cpu time    0.59: real time    0.59

 eigenvalue-minimisations  :   192
 total energy-change (2. order) : 0.1649880E+01  (-0.2215387E+00)
 number of electron   97.9999995 magnetization 
 augmentation part    -1.1572471 magnetization 

 Broyden mixing:
  rms(total) = 0.37164E+00    rms(broyden)= 0.37163E+00
  rms(prec ) = 0.67033E+00
  weight for this iteration     100.00

 eigenvalues of (default mixing * dielectric matrix)
  average eigenvalue GAMMA=   1.5470
  1.5470

 Free energy of the ion-electron system (eV)
  ---------------------------------------------------
  alpha Z        PSCENC =        -8.27958290
  Ewald energy   TEWEN  =     -2349.00126995
  -1/2 Hartree   DENC   =       -45.90923759
  -exchange  EXHF       =         0.00000000
  -V(xc)+E(xc)   XCENC  =      -843.61856515
  PAW double counting   =      1156.68684403     -123.44524171
  entropy T*S    EENTRO =         0.06578696
  eigenvalues    EBANDS =       362.21242199
  atomic energy  EATOM  =      1736.20668909
  ---------------------------------------------------
  free energy    TOTEN  =      -115.08215522 eV

  energy without entropy =     -115.14794218  energy(sigma->0) =     -115.10408420


--------------------------------------------------------------------------------------------------------




----------------------------------------- Iteration    1(  14)  ---------------------------------------


    POTLOK:  cpu time    0.06: real time    0.06
    SETDIJ:  cpu time    0.01: real time    0.01
    EDDIAG:  cpu time    0.09: real time    0.09
  RMM-DIIS:  cpu time    0.30: real time    0.37
    ORTHCH:  cpu time    0.01: real time    0.01
       DOS:  cpu time    0.00: real time    0.01
    CHARGE:  cpu time    0.10: real time    0.10
    MIXING:  cpu time    0.02: real time    0.02
    --------------------------------------------
      LOOP:  cpu time    0.59: real time    0.67

 eigenvalue-minimisations  :   192
 total energy-change (2. order) : 0.3753869E+00  (-0.2637365E-01)
 number of electron   97.9999995 magnetization 
 augmentation part    -1.1678131 magnetization 

 Broyden mixing:
  rms(total) = 0.23826E+00    rms(broyden)= 0.23826E+00
  rms(prec ) = 0.34564E+00
  weight for this iteration     100.00

 eigenvalues of (default mixing * dielectric matrix)
  average eigenvalue GAMMA=   1.5653
  2.3712  0.7595

 Free energy of the ion-electron system (eV)
  ---------------------------------------------------
  alpha Z        PSCENC =        -8.27958290
  Ewald energy   TEWEN  =     -2349.00126995
  -1/2 Hartree   DENC   =       -45.64052717
  -exchange  EXHF       =         0.00000000
  -V(xc)+E(xc)   XCENC  =      -842.81814858
  PAW double counting   =      1160.10979989     -127.08504398
  entropy T*S    EENTRO =         0.00997239
  eigenvalues    EBANDS =       361.79134285
  atomic energy  EATOM  =      1736.20668909
  ---------------------------------------------------
  free energy    TOTEN  =      -114.70676836 eV

  energy without entropy =     -114.71674074  energy(sigma->0) =     -114.71009248


--------------------------------------------------------------------------------------------------------




----------------------------------------- Iteration    1(  15)  ---------------------------------------


    POTLOK:  cpu time    0.06: real time    0.06
    SETDIJ:  cpu time    0.01: real time    0.01
    EDDIAG:  cpu time    0.10: real time    0.12
  RMM-DIIS:  cpu time    0.30: real time    0.32
    ORTHCH:  cpu time    0.01: real time    0.01
       DOS:  cpu time    0.00: real time    0.00
    CHARGE:  cpu time    0.10: real time    0.10
    MIXING:  cpu time    0.00: real time    0.00
    --------------------------------------------
      LOOP:  cpu time    0.58: real time    0.62

 eigenvalue-minimisations  :   192
 total energy-change (2. order) : 0.1473137E+00  (-0.9090369E-02)
 number of electron   97.9999995 magnetization 
 augmentation part    -1.1822947 magnetization 

 Broyden mixing:
  rms(total) = 0.67135E-01    rms(broyden)= 0.67135E-01
  rms(prec ) = 0.10567E+00
  weight for this iteration     100.00

 eigenvalues of (default mixing * dielectric matrix)
  average eigenvalue GAMMA=   1.5395
  2.5726  1.2713  0.7744

 Free energy of the ion-electron system (eV)
  ---------------------------------------------------
  alpha Z        PSCENC =        -8.27958290
  Ewald energy   TEWEN  =     -2349.00126995
  -1/2 Hartree   DENC   =       -46.96140134
  -exchange  EXHF       =         0.00000000
  -V(xc)+E(xc)   XCENC  =      -841.46984091
  PAW double counting   =      1165.04753505     -132.36465659
  entropy T*S    EENTRO =         0.00548903
  eigenvalues    EBANDS =       362.25758384
  atomic energy  EATOM  =      1736.20668909
  ---------------------------------------------------
  free energy    TOTEN  =      -114.55945468 eV

  energy without entropy =     -114.56494371  energy(sigma->0) =     -114.56128435


--------------------------------------------------------------------------------------------------------




----------------------------------------- Iteration    1(  16)  ---------------------------------------


    POTLOK:  cpu time    0.06: real time    0.06
    SETDIJ:  cpu time    0.01: real time    0.01
    EDDIAG:  cpu time    0.09: real time    0.09
  RMM-DIIS:  cpu time    0.31: real time    0.31
    ORTHCH:  cpu time    0.01: real time    0.01
       DOS:  cpu time    0.00: real time    0.00
    CHARGE:  cpu time    0.10: real time    0.10
    MIXING:  cpu time    0.00: real time    0.00
    --------------------------------------------
      LOOP:  cpu time    0.58: real time    0.59

 eigenvalue-minimisations  :   192
 total energy-change (2. order) : 0.1546893E-01  (-0.1170204E-02)
 number of electron   97.9999994 magnetization 
 augmentation part    -1.1893589 magnetization 

 Broyden mixing:
  rms(total) = 0.10051E-01    rms(broyden)= 0.10051E-01
  rms(prec ) = 0.26413E-01
  weight for this iteration     100.00

 eigenvalues of (default mixing * dielectric matrix)
  average eigenvalue GAMMA=   1.5234
  2.6317  0.8025  1.0816  1.5776

 Free energy of the ion-electron system (eV)
  ---------------------------------------------------
  alpha Z        PSCENC =        -8.27958290
  Ewald energy   TEWEN  =     -2349.00126995
  -1/2 Hartree   DENC   =       -47.35697371
  -exchange  EXHF       =         0.00000000
  -V(xc)+E(xc)   XCENC  =      -840.93291095
  PAW double counting   =      1166.77426439     -134.22458557
  entropy T*S    EENTRO =         0.01427328
  eigenvalues    EBANDS =       362.25611057
  atomic energy  EATOM  =      1736.20668909
  ---------------------------------------------------
  free energy    TOTEN  =      -114.54398575 eV

  energy without entropy =     -114.55825903  energy(sigma->0) =     -114.54874351


--------------------------------------------------------------------------------------------------------




----------------------------------------- Iteration    1(  17)  ---------------------------------------


    POTLOK:  cpu time    0.06: real time    0.06
    SETDIJ:  cpu time    0.01: real time    0.01
    EDDIAG:  cpu time    0.09: real time    0.09
  RMM-DIIS:  cpu time    0.31: real time    0.31
    ORTHCH:  cpu time    0.01: real time    0.01
       DOS:  cpu time    0.00: real time    0.00
    CHARGE:  cpu time    0.10: real time    0.10
    MIXING:  cpu time    0.00: real time    0.00
    --------------------------------------------
      LOOP:  cpu time    0.58: real time    0.58

 eigenvalue-minimisations  :   183
 total energy-change (2. order) : 0.6792685E-03  (-0.9160545E-04)
 number of electron   97.9999994 magnetization 
 augmentation part    -1.1912422 magnetization 

 Broyden mixing:
  rms(total) = 0.36260E-02    rms(broyden)= 0.36260E-02
  rms(prec ) = 0.63177E-02
  weight for this iteration     100.00

 eigenvalues of (default mixing * dielectric matrix)
  average eigenvalue GAMMA=   1.5783
  2.6459  2.1864  0.8488  0.8853  1.3250

 Free energy of the ion-electron system (eV)
  ---------------------------------------------------
  alpha Z        PSCENC =        -8.27958290
  Ewald energy   TEWEN  =     -2349.00126995
  -1/2 Hartree   DENC   =       -47.28456723
  -exchange  EXHF       =         0.00000000
  -V(xc)+E(xc)   XCENC  =      -840.88431611
  PAW double counting   =      1166.89252855     -134.35627309
  entropy T*S    EENTRO =         0.01094249
  eigenvalues    EBANDS =       362.15254266
  atomic energy  EATOM  =      1736.20668909
  ---------------------------------------------------
  free energy    TOTEN  =      -114.54330648 eV

  energy without entropy =     -114.55424897  energy(sigma->0) =     -114.54695398


--------------------------------------------------------------------------------------------------------




----------------------------------------- Iteration    1(  18)  ---------------------------------------


    POTLOK:  cpu time    0.06: real time    0.06
    SETDIJ:  cpu time    0.01: real time    0.01
    EDDIAG:  cpu time    0.09: real time    0.09
  RMM-DIIS:  cpu time    0.23: real time    0.23
    ORTHCH:  cpu time    0.01: real time    0.01
       DOS:  cpu time    0.00: real time    0.00
    --------------------------------------------
      LOOP:  cpu time    0.40: real time    0.40

 eigenvalue-minimisations  :   125
 total energy-change (2. order) : 0.2880352E-04  (-0.1074569E-04)
 number of electron   97.9999994 magnetization 
 augmentation part    -1.1912422 magnetization 

 Free energy of the ion-electron system (eV)
  ---------------------------------------------------
  alpha Z        PSCENC =        -8.27958290
  Ewald energy   TEWEN  =     -2349.00126995
  -1/2 Hartree   DENC   =       -47.30413701
  -exchange  EXHF       =         0.00000000
  -V(xc)+E(xc)   XCENC  =      -840.86656777
  PAW double counting   =      1166.88788320     -134.35682876
  entropy T*S    EENTRO =         0.01145864
  eigenvalues    EBANDS =       362.15907778
  atomic energy  EATOM  =      1736.20668909
  ---------------------------------------------------
  free energy    TOTEN  =      -114.54327768 eV

  energy without entropy =     -114.55473632  energy(sigma->0) =     -114.54709723


--------------------------------------------------------------------------------------------------------




 average (electrostatic) potential at core
  the test charge radii are     1.0406  1.0714
  (the norm of the test charge is              1.0000)
       1 -72.3582       2 -72.3582       3 -72.3061       4 -72.3582       5 -72.3920
       6 -72.3582       7 -72.3061       8 -72.3920       9 -72.3920      10 -72.3920
      11 -72.3061      12 -72.3582      13 -72.1029      14 -72.3920      15 -72.3061
      16 -72.3920      17 -72.3582      18 -72.3920      19 -72.3061      20 -72.3920
      21 -72.3920      22 -72.3920      23 -72.3061      24 -72.1029      25 -72.3920
      26 -72.1029      27 -72.3061      28 -72.3920      29 -72.1029      30 -72.1029
      31 -72.3061      32 -72.1029      33 -49.5873
 
 
 
 E-fermi :   8.2422     XC(G=0): -10.2345     alpha+bet :-15.2356
   add alpha+bet to get absolut eigen values

 k-point   1 :       0.2500    0.2500    0.2500
  band No.  band energies     occupation 
      1      -2.9171      2.00000
      2      -1.7577      2.00000
      3      -1.7577      2.00000
      4      -1.6768      2.00000
      5      -0.6527      2.00000
      6      -0.6527      2.00000
      7      -0.2246      2.00000
      8       0.4739      2.00000
      9       0.4739      2.00000
     10       0.5070      2.00000
     11       1.0466      2.00000
     12       1.4845      2.00000
     13       1.4845      2.00000
     14       1.6263      2.00000
     15       1.8824      2.00000
     16       1.8824      2.00000
     17       1.9747      2.00000
     18       3.0508      2.00000
     19       3.1092      2.00000
     20       3.1092      2.00000
     21       3.7030      2.00000
     22       3.7633      2.00000
     23       3.7633      2.00000
     24       3.7964      2.00000
     25       3.7964      2.00000
     26       4.0981      2.00000
     27       4.7309      2.00000
     28       4.7309      2.00000
     29       4.7804      2.00000
     30       4.9860      2.00000
     31       5.0222      2.00000
     32       5.0222      2.00000
     33       5.2094      2.00000
     34       5.2895      2.00000
     35       5.2895      2.00000
     36       6.1754      2.00000
     37       6.1754      2.00000
     38       6.6638      2.00000
     39       6.8328      2.00000
     40       6.8926      2.00000
     41       6.8926      2.00000
     42       7.1403      2.00000
     43       7.1623      2.00000
     44       7.1623      2.00000
     45       7.2930      2.00000
     46       8.0043      2.07052
     47       8.0113      2.06926
     48       8.0113      2.06926
     49       8.2139      1.23737
     50       8.3280      0.34298
     51       8.3280      0.34298
     52       8.4606     -0.06444
     53       8.4606     -0.06444
     54       8.7235     -0.00349
     55       9.1159      0.00000
     56       9.1159      0.00000
     57       9.3972      0.00000
     58       9.4784      0.00000
     59       9.5949      0.00000
     60       9.5949      0.00000
     61       9.9836      0.00000
     62      10.1034      0.00000
     63      10.1034      0.00000
     64      10.3298      0.00000
     65      10.3298      0.00000
     66      10.5833      0.00000
     67      10.5833      0.00000
     68      10.6528      0.00000
     69      11.0701      0.00000
     70      11.2344      0.00000
     71      11.2344      0.00000
     72      11.3060      0.00000
     73      11.4442      0.00000
     74      11.4442      0.00000
     75      11.6180      0.00000
     76      11.7893      0.00000
     77      11.7893      0.00000
     78      11.9418      0.00000
     79      12.4679      0.00000
     80      12.4679      0.00000
     81      12.6065      0.00000
     82      12.8374      0.00000
     83      12.8378      0.00000
     84      13.2303      0.00000
     85      13.2309      0.00000
     86      13.3939      0.00000
     87      13.4382      0.00000
     88      13.4713      0.00000
     89      13.4736      0.00000
     90      13.6116      0.00000
     91      13.9504      0.00000
     92      13.9861      0.00000
     93      14.1478      0.00000
     94      14.3770      0.00000
     95      14.4427      0.00000
     96      14.6823      0.00000


--------------------------------------------------------------------------------------------------------


 soft charge-density along one line, spin component           1
         0         1         2         3         4         5         6         7         8         9
 total charge-density along one line
 
 pseudopotential strength for first ion, spin component:           1
  8.445  -0.006   0.000  -0.001   0.000   0.000   0.000   0.000
 -0.006   0.000   0.000   0.000   0.000   0.000   0.000   0.000
  0.000   0.000   1.993   0.000   0.000  -0.028   0.000   0.000
 -0.001   0.000   0.000   1.993   0.000   0.000  -0.028   0.000
  0.000   0.000   0.000   0.000   1.993   0.000   0.000  -0.028
  0.000   0.000  -0.028   0.000   0.000  -0.012   0.000   0.000
  0.000   0.000   0.000  -0.028   0.000   0.000  -0.012   0.000
  0.000   0.000   0.000   0.000  -0.028   0.000   0.000  -0.012
 total augmentation occupancy for first ion, spin component:           1
  1.259  -0.669   0.000   0.062   0.000   0.000  -0.044   0.000
 -0.669   0.668   0.000  -0.070   0.000   0.000   0.041   0.000
  0.000   0.000   0.841   0.000   0.000  -0.229   0.000   0.000
  0.062  -0.070   0.000   0.838   0.000   0.000  -0.234   0.000
  0.000   0.000   0.000   0.000   0.841   0.000   0.000  -0.229
  0.000   0.000  -0.229   0.000   0.000   0.069   0.000   0.000
 -0.044   0.041   0.000  -0.234   0.000   0.000   0.073   0.000
  0.000   0.000   0.000   0.000  -0.229   0.000   0.000   0.069


------------------------ aborting loop because EDIFF is reached ----------------------------------------




--------------------------------------------------------------------------------------------------------



  FREE ENERGIE OF THE ION-ELECTRON SYSTEM (eV)
  ---------------------------------------------------
  free  energy   TOTEN  =      -114.543278 eV

  energy  without entropy=     -114.554736  energy(sigma->0) =     -114.547097
 
    CHARGE:  cpu time    0.09: real time    0.09
    FORLOC:  cpu time    0.01: real time    0.02
    FORNL :  cpu time    0.15: real time    0.15
    STRESS:  cpu time    0.27: real time    0.27
    FORCOR:  cpu time    0.07: real time    0.07
    FORHAR:  cpu time    0.03: real time    0.03
    MIXING:  cpu time    0.00: real time    0.00

  FORCE on cell =-STRESS in cart. coord.  units (eV):
  Direction    XX          YY          ZZ          XY          YZ          ZX
  --------------------------------------------------------------------------------------
  Alpha Z    -8.27958    -8.27958    -8.27958
  Ewald    -783.00346  -783.00346  -783.00346     0.00000     0.00000     0.00000
  Hartree    15.77044    15.77044    15.77044     0.00000     0.00000     0.00000
  E(xc)    -284.94741  -284.94741  -284.94741     0.00000     0.00000     0.00000
  Local     -24.24271   -24.24271   -24.24271     0.00000     0.00000     0.00000
  n-local   637.12089   637.12093   637.12094    -1.59046    -1.59043    -1.59044
  augment   -31.81127   -31.81127   -31.81127     0.00000     0.00000     0.00000
  Kinetic   507.21175   507.21178   507.21174    -1.30954    -1.30955    -1.30955
  Fock        0.00000     0.00000     0.00000     0.00000     0.00000     0.00000
  -------------------------------------------------------------------------------------
  Total      27.81868    27.81868    27.81868     0.00000     0.00000     0.00000
  in kB      84.27104    84.27104    84.27104     0.00000     0.00000     0.00000
  external pressure =       84.27 kB  Pullay stress =        0.00 kB


 VOLUME and BASIS-vectors are now :
 -----------------------------------------------------------------------------
  energy-cutoff  :      300.00
  volume of cell :      528.89
      direct lattice vectors                 reciprocal lattice vectors
     8.087040000  0.000000000  0.000000000     0.123654638  0.000000000  0.000000000
     0.000000000  8.087040000  0.000000000     0.000000000  0.123654638  0.000000000
     0.000000000  0.000000000  8.087040000     0.000000000  0.000000000  0.123654638

  length of vectors
     8.087040000  8.087040000  8.087040000     0.123654638  0.123654638  0.123654638


 FORCES acting on ions
    electron-ion (+dipol)            ewald-force                    non-local-force                 convergence-correction
 -----------------------------------------------------------------------------------------------
   0.825E-14 0.825E-14 0.131E+02   0.100E-11 0.992E-12 -.113E+02   0.121E-16 0.199E-16 -.300E+01   0.757E-14 -.983E-14 -.429E-03
   -.131E+02 -.331E-13 0.370E-07   0.113E+02 0.990E-12 0.176E-15   0.300E+01 0.520E-17 -.173E-16   0.428E-03 -.100E-13 -.138E-13
   -.119E+02 -.119E+02 0.119E+02   0.110E+02 0.110E+02 -.110E+02   0.150E+01 0.150E+01 -.150E+01   0.736E-03 0.736E-03 -.737E-03
   0.651E-14 -.131E+02 0.370E-07   0.999E-12 0.113E+02 0.729E-14   -.607E-17 0.300E+01 -.173E-17   0.464E-14 0.428E-03 -.296E-13
   0.123E-14 0.192E-13 0.746E+01   0.113E-11 0.764E-12 -.659E+01   0.173E-17 0.737E-17 -.120E+01   -.156E-13 -.105E-13 -.234E-02
   0.131E+02 0.907E-13 -.370E-07   -.113E+02 0.102E-11 -.128E-13   -.300E+01 0.173E-17 0.347E-17   -.428E-03 -.956E-14 -.241E-13
   0.119E+02 -.119E+02 0.119E+02   -.110E+02 0.110E+02 -.110E+02   -.150E+01 0.150E+01 -.150E+01   -.736E-03 0.736E-03 -.737E-03
   -.229E-15 -.746E+01 -.857E-09   0.114E-11 0.659E+01 0.183E-14   -.694E-17 0.120E+01 -.217E-17   -.128E-13 0.234E-02 -.173E-13
   0.650E-14 -.999E-14 0.746E+01   0.761E-12 0.114E-11 -.659E+01   -.737E-17 0.347E-17 -.120E+01   0.457E-14 0.141E-15 -.234E-02
   -.746E+01 -.161E-13 -.857E-09   0.659E+01 0.114E-11 -.844E-14   0.120E+01 0.347E-17 0.347E-17   0.234E-02 -.244E-15 -.279E-13
   -.119E+02 0.119E+02 0.119E+02   0.110E+02 -.110E+02 -.110E+02   0.150E+01 -.150E+01 -.150E+01   0.736E-03 -.736E-03 -.737E-03
   0.729E-14 0.131E+02 -.370E-07   0.979E-12 -.113E+02 0.298E-13   0.954E-17 -.300E+01 -.520E-17   0.471E-14 -.428E-03 -.294E-13
   -.566E-14 -.758E-13 0.244E+02   0.630E-12 0.634E-12 -.235E+02   0.325E-17 0.325E-17 -.177E+01   -.110E-13 0.538E-15 0.130E-02
   0.746E+01 0.250E-14 0.857E-09   -.659E+01 0.112E-11 0.298E-14   -.120E+01 -.347E-17 0.867E-18   -.234E-02 0.984E-16 -.335E-13
   0.119E+02 0.119E+02 0.119E+02   -.110E+02 -.110E+02 -.110E+02   -.150E+01 -.150E+01 -.150E+01   -.736E-03 -.736E-03 -.737E-03
   -.961E-15 0.746E+01 0.857E-09   0.114E-11 -.659E+01 -.940E-14   -.347E-17 -.120E+01 0.651E-17   -.129E-13 -.234E-02 -.130E-13
   0.427E-14 0.218E-14 -.131E+02   0.101E-11 0.995E-12 0.113E+02   0.520E-17 0.867E-18 0.300E+01   0.181E-13 -.105E-13 0.429E-03
   -.746E+01 -.115E-13 0.129E-07   0.659E+01 0.766E-12 -.910E-14   0.120E+01 -.477E-17 0.104E-16   0.234E-02 -.118E-13 0.158E-13
   -.119E+02 -.119E+02 -.119E+02   0.110E+02 0.110E+02 0.110E+02   0.150E+01 0.150E+01 0.150E+01   0.736E-03 0.736E-03 0.737E-03
   0.682E-14 -.746E+01 0.129E-07   0.764E-12 0.659E+01 0.644E-14   0.130E-17 0.120E+01 -.173E-17   0.201E-13 0.234E-02 0.314E-13
   -.759E-15 -.309E-13 -.746E+01   0.115E-11 0.772E-12 0.659E+01   -.867E-17 -.564E-17 0.120E+01   -.257E-13 -.149E-13 0.234E-02
   0.746E+01 -.360E-13 -.129E-07   -.659E+01 0.789E-12 0.322E-14   -.120E+01 0.434E-18 -.139E-16   -.234E-02 -.145E-13 0.263E-13
   0.119E+02 -.119E+02 -.119E+02   -.110E+02 0.110E+02 0.110E+02   -.150E+01 0.150E+01 0.150E+01   -.736E-03 0.736E-03 0.737E-03
   -.459E-14 -.244E+02 -.142E-07   0.846E-12 0.235E+02 -.499E-14   -.217E-18 0.177E+01 -.195E-17   -.283E-13 -.130E-02 0.185E-13
   0.168E-14 -.340E-14 -.746E+01   0.767E-12 0.114E-11 0.659E+01   0.390E-17 0.347E-17 0.120E+01   0.110E-13 0.721E-15 0.234E-02
   -.244E+02 -.888E-14 -.142E-07   0.235E+02 0.632E-12 0.211E-12   0.177E+01 -.173E-17 -.651E-18   -.130E-02 0.211E-14 0.319E-13
   -.119E+02 0.119E+02 -.119E+02   0.110E+02 -.110E+02 0.110E+02   0.150E+01 -.150E+01 0.150E+01   0.736E-03 -.736E-03 0.737E-03
   0.402E-14 0.746E+01 -.129E-07   0.784E-12 -.659E+01 0.144E-14   -.477E-17 -.120E+01 -.121E-16   0.171E-13 -.234E-02 0.301E-13
   -.393E-14 0.232E-13 -.244E+02   0.632E-12 0.633E-12 0.235E+02   0.217E-18 0.239E-17 0.177E+01   -.158E-13 0.492E-14 -.130E-02
   0.244E+02 0.645E-13 0.142E-07   -.235E+02 0.835E-12 0.588E-14   -.177E+01 0.000E+00 0.195E-17   0.130E-02 0.484E-14 0.380E-13
   0.119E+02 0.119E+02 -.119E+02   -.110E+02 -.110E+02 0.110E+02   -.150E+01 -.150E+01 0.150E+01   -.736E-03 -.736E-03 0.737E-03
   -.394E-14 0.244E+02 0.142E-07   0.830E-12 -.235E+02 0.767E-14   -.195E-17 -.177E+01 -.239E-17   -.259E-13 0.130E-02 0.140E-13
   0.651E-14 -.273E-13 0.131E-12   0.318E-12 0.309E-12 0.717E-15   -.529E-22 -.106E-21 0.318E-21   -.125E-13 0.398E-14 0.165E-13
 -----------------------------------------------------------------------------------------------
   0.492E-11 0.541E-11 -.134E-11   -.129E-14 -.316E-13 -.769E-13   -.133E-14 -.444E-15 0.220E-15   0.207E-13 -.233E-13 -.424E-13
 
 
 POSITION                                       TOTAL-FORCE (eV/Angst)
 -----------------------------------------------------------------------------------
      0.00000      0.00000      0.17296         0.000000      0.000000     -1.235440
      1.84880      0.00000      2.02176         1.235440      0.000000      0.000000
      1.94535      1.94535      0.07641         0.542034      0.542034     -0.542034
      0.00000      1.84880      2.02176         0.000000      1.235440      0.000000
      4.04352      0.00000      0.20739         0.000000      0.000000     -0.329873
      6.23824      0.00000      2.02176        -1.235440      0.000000      0.000000
      6.14169      1.94535      0.07641        -0.542034      0.542034     -0.542034
      4.04352      1.81437      2.02176         0.000000      0.329873      0.000000
      0.00000      4.04352      0.20739         0.000000      0.000000     -0.329873
      1.81437      4.04352      2.02176         0.329873      0.000000      0.000000
      1.94535      6.14169      0.07641         0.542034     -0.542034     -0.542034
      0.00000      6.23824      2.02176         0.000000     -1.235440      0.000000
      4.04352      4.04352      0.67135         0.000000      0.000000     -0.855778
      6.27267      4.04352      2.02176        -0.329873      0.000000      0.000000
      6.14169      6.14169      0.07641        -0.542034     -0.542034     -0.542034
      4.04352      6.27267      2.02176         0.000000     -0.329873      0.000000
      0.00000      0.00000      3.87056         0.000000      0.000000      1.235440
      1.81437      0.00000      6.06528         0.329873      0.000000      0.000000
      1.94535      1.94535      3.96711         0.542034      0.542034      0.542034
      0.00000      1.81437      6.06528         0.000000      0.329873      0.000000
      4.04352      0.00000      3.83613         0.000000      0.000000      0.329873
      6.27267      0.00000      6.06528        -0.329873      0.000000      0.000000
      6.14169      1.94535      3.96711        -0.542034      0.542034      0.542034
      4.04352      1.35041      6.06528         0.000000      0.855778      0.000000
      0.00000      4.04352      3.83613         0.000000      0.000000      0.329873
      1.35041      4.04352      6.06528         0.855778      0.000000      0.000000
      1.94535      6.14169      3.96711         0.542034     -0.542034      0.542034
      0.00000      6.27267      6.06528         0.000000     -0.329873      0.000000
      4.04352      4.04352      3.37217         0.000000      0.000000      0.855778
      6.73663      4.04352      6.06528        -0.855778      0.000000      0.000000
      6.14169      6.14169      3.96711        -0.542034     -0.542034      0.542034
      4.04352      6.73663      6.06528         0.000000     -0.855778      0.000000
      4.04352      4.04352      6.06528         0.000000      0.000000      0.000000
 -----------------------------------------------------------------------------------
    total drift:                                0.000000      0.000000      0.000000


--------------------------------------------------------------------------------------------------------


    POTLOK:  cpu time    0.07: real time    0.07


--------------------------------------------------------------------------------------------------------


  FORCES: max atom, RMS     1.235440    0.814807
  FORCE total and by dimension    4.680707    1.235440


--------------------------------------------------------------------------------------------------------


    WAVPRE:  cpu time    0.02: real time    0.02
    FEWALD:  cpu time    0.01: real time    0.01
    ORTHCH:  cpu time    0.04: real time    0.04
     LOOP+:  cpu time    8.20: real time    8.44
   RESPFUN:  cpu time    0.00: real time    0.00


----------------------------------------- Iteration    2(   1)  ---------------------------------------


    POTLOK:  cpu time    0.06: real time    0.06
    SETDIJ:  cpu time    0.01: real time    0.01
    EDDIAG:  cpu time    0.09: real time    0.09
  RMM-DIIS:  cpu time    0.31: real time    0.31
    ORTHCH:  cpu time    0.01: real time    0.01
       DOS:  cpu time    0.00: real time    0.00
    CHARGE:  cpu time    0.10: real time    0.10
    MIXING:  cpu time    0.00: real time    0.00
    --------------------------------------------
      LOOP:  cpu time    0.58: real time    0.59

 eigenvalue-minimisations  :   192
 total energy-change (2. order) :-0.9728030E+00  (-0.5505519E+00)
 number of electron   97.9999999 magnetization 
 augmentation part    -1.1888760 magnetization 

 Broyden mixing:
  rms(total) = 0.95764E-01    rms(broyden)= 0.95755E-01
  rms(prec ) = 0.33080E+00
  weight for this iteration     100.00

 Free energy of the ion-electron system (eV)
  ---------------------------------------------------
  alpha Z        PSCENC =        -8.27958290
  Ewald energy   TEWEN  =     -2364.81803282
  -1/2 Hartree   DENC   =       -35.46308546
  -exchange  EXHF       =         0.00000000
  -V(xc)+E(xc)   XCENC  =      -841.06865168
  PAW double counting   =      1166.87073826     -134.34098267
  entropy T*S    EENTRO =         0.06557685
  eigenvalues    EBANDS =       365.31122186
  atomic energy  EATOM  =      1736.20668909
  ---------------------------------------------------
  free energy    TOTEN  =      -115.51610947 eV

  energy without entropy =     -115.58168632  energy(sigma->0) =     -115.53796842


--------------------------------------------------------------------------------------------------------




----------------------------------------- Iteration    2(   2)  ---------------------------------------


    POTLOK:  cpu time    0.06: real time    0.06
    SETDIJ:  cpu time    0.01: real time    0.01
    EDDIAG:  cpu time    0.09: real time    0.09
  RMM-DIIS:  cpu time    0.31: real time    0.31
    ORTHCH:  cpu time    0.01: real time    0.01
       DOS:  cpu time    0.00: real time    0.00
    CHARGE:  cpu time    0.10: real time    0.10
    MIXING:  cpu time    0.00: real time    0.00
    --------------------------------------------
      LOOP:  cpu time    0.58: real time    0.58

 eigenvalue-minimisations  :   192
 total energy-change (2. order) : 0.1041554E+00  (-0.1712620E-01)
 number of electron   98.0000000 magnetization 
 augmentation part    -1.1891421 magnetization 

 Broyden mixing:
  rms(total) = 0.29664E-01    rms(broyden)= 0.29663E-01
  rms(prec ) = 0.75698E-01
  weight for this iteration     100.00

 eigenvalues of (default mixing * dielectric matrix)
  average eigenvalue GAMMA=   0.9816
  0.9816

 Free energy of the ion-electron system (eV)
  ---------------------------------------------------
  alpha Z        PSCENC =        -8.27958290
  Ewald energy   TEWEN  =     -2364.81803282
  -1/2 Hartree   DENC   =       -34.50085532
  -exchange  EXHF       =         0.00000000
  -V(xc)+E(xc)   XCENC  =      -841.10837972
  PAW double counting   =      1166.12787256     -133.56835218
  entropy T*S    EENTRO =         0.06123471
  eigenvalues    EBANDS =       364.46745246
  atomic energy  EATOM  =      1736.20668909
  ---------------------------------------------------
  free energy    TOTEN  =      -115.41195412 eV

  energy without entropy =     -115.47318882  energy(sigma->0) =     -115.43236568


--------------------------------------------------------------------------------------------------------




----------------------------------------- Iteration    2(   3)  ---------------------------------------


    POTLOK:  cpu time    0.06: real time    0.06
    SETDIJ:  cpu time    0.01: real time    0.01
    EDDIAG:  cpu time    0.09: real time    0.09
  RMM-DIIS:  cpu time    0.35: real time    0.35
    ORTHCH:  cpu time    0.01: real time    0.01
       DOS:  cpu time    0.00: real time    0.00
    CHARGE:  cpu time    0.10: real time    0.10
    MIXING:  cpu time    0.00: real time    0.00
    --------------------------------------------
      LOOP:  cpu time    0.62: real time    0.62

 eigenvalue-minimisations  :   193
 total energy-change (2. order) : 0.5035397E-02  (-0.6856361E-03)
 number of electron   98.0000000 magnetization 
 augmentation part    -1.1887552 magnetization 

 Broyden mixing:
  rms(total) = 0.16193E-01    rms(broyden)= 0.16193E-01
  rms(prec ) = 0.24282E-01
  weight for this iteration     100.00

 eigenvalues of (default mixing * dielectric matrix)
  average eigenvalue GAMMA=   1.3588
  0.8576  1.8599

 Free energy of the ion-electron system (eV)
  ---------------------------------------------------
  alpha Z        PSCENC =        -8.27958290
  Ewald energy   TEWEN  =     -2364.81803282
  -1/2 Hartree   DENC   =       -34.58311460
  -exchange  EXHF       =         0.00000000
  -V(xc)+E(xc)   XCENC  =      -841.11929082
  PAW double counting   =      1165.74265550     -133.16573154
  entropy T*S    EENTRO =         0.06321609
  eigenvalues    EBANDS =       364.54627328
  atomic energy  EATOM  =      1736.20668909
  ---------------------------------------------------
  free energy    TOTEN  =      -115.40691872 eV

  energy without entropy =     -115.47013481  energy(sigma->0) =     -115.42799075


--------------------------------------------------------------------------------------------------------




----------------------------------------- Iteration    2(   4)  ---------------------------------------


    POTLOK:  cpu time    0.06: real time    0.06
    SETDIJ:  cpu time    0.01: real time    0.01
    EDDIAG:  cpu time    0.09: real time    0.09
  RMM-DIIS:  cpu time    0.31: real time    0.31
    ORTHCH:  cpu time    0.01: real time    0.01
       DOS:  cpu time    0.00: real time    0.00
    CHARGE:  cpu time    0.10: real time    0.10
    MIXING:  cpu time    0.00: real time    0.00
    --------------------------------------------
      LOOP:  cpu time    0.58: real time    0.59

 eigenvalue-minimisations  :   190
 total energy-change (2. order) : 0.3771537E-03  (-0.8405816E-04)
 number of electron   98.0000000 magnetization 
 augmentation part    -1.1887606 magnetization 

 Broyden mixing:
  rms(total) = 0.70130E-02    rms(broyden)= 0.70130E-02
  rms(prec ) = 0.99694E-02
  weight for this iteration     100.00

 eigenvalues of (default mixing * dielectric matrix)
  average eigenvalue GAMMA=   1.4832
  2.4033  1.2039  0.8425

 Free energy of the ion-electron system (eV)
  ---------------------------------------------------
  alpha Z        PSCENC =        -8.27958290
  Ewald energy   TEWEN  =     -2364.81803282
  -1/2 Hartree   DENC   =       -34.54637376
  -exchange  EXHF       =         0.00000000
  -V(xc)+E(xc)   XCENC  =      -841.13101906
  PAW double counting   =      1165.35474484     -132.76051017
  entropy T*S    EENTRO =         0.06228190
  eigenvalues    EBANDS =       364.50526132
  atomic energy  EATOM  =      1736.20668909
  ---------------------------------------------------
  free energy    TOTEN  =      -115.40654157 eV

  energy without entropy =     -115.46882346  energy(sigma->0) =     -115.42730220


--------------------------------------------------------------------------------------------------------




----------------------------------------- Iteration    2(   5)  ---------------------------------------


    POTLOK:  cpu time    0.06: real time    0.06
    SETDIJ:  cpu time    0.01: real time    0.01
    EDDIAG:  cpu time    0.09: real time    0.09
  RMM-DIIS:  cpu time    0.23: real time    0.23
    ORTHCH:  cpu time    0.01: real time    0.01
       DOS:  cpu time    0.00: real time    0.00
    --------------------------------------------
      LOOP:  cpu time    0.40: real time    0.40

[...]
  PAW double counting   =      1162.93787960     -130.24130783
  entropy T*S    EENTRO =        -0.01174636
  eigenvalues    EBANDS =       368.34047295
  atomic energy  EATOM  =      1736.20668909
  ---------------------------------------------------
  free energy    TOTEN  =      -116.27413550 eV

  energy without entropy =     -116.26238914  energy(sigma->0) =     -116.27022005


--------------------------------------------------------------------------------------------------------




----------------------------------------- Iteration    7(   4)  ---------------------------------------


    POTLOK:  cpu time    0.06: real time    0.06
    SETDIJ:  cpu time    0.01: real time    0.01
    EDDIAG:  cpu time    0.09: real time    0.09
  RMM-DIIS:  cpu time    0.23: real time    0.23
    ORTHCH:  cpu time    0.01: real time    0.01
       DOS:  cpu time    0.00: real time    0.00
    --------------------------------------------
      LOOP:  cpu time    0.40: real time    0.40

 eigenvalue-minimisations  :   119
 total energy-change (2. order) : 0.6853216E-05  (-0.5349037E-05)
 number of electron   98.0000000 magnetization 
 augmentation part    -1.1851560 magnetization 

 Free energy of the ion-electron system (eV)
  ---------------------------------------------------
  alpha Z        PSCENC =        -8.27958290
  Ewald energy   TEWEN  =     -2388.44995285
  -1/2 Hartree   DENC   =       -15.21095538
  -exchange  EXHF       =         0.00000000
  -V(xc)+E(xc)   XCENC  =      -841.57027246
  PAW double counting   =      1162.94480484     -130.24827234
  entropy T*S    EENTRO =        -0.01174689
  eigenvalues    EBANDS =       368.34516024
  atomic energy  EATOM  =      1736.20668909
  ---------------------------------------------------
  free energy    TOTEN  =      -116.27412865 eV

  energy without entropy =     -116.26238175  energy(sigma->0) =     -116.27021301


--------------------------------------------------------------------------------------------------------




 average (electrostatic) potential at core
  the test charge radii are     1.0406  1.0714
  (the norm of the test charge is              1.0000)
       1 -72.4002       2 -72.4002       3 -72.3526       4 -72.4002       5 -72.3462
       6 -72.4002       7 -72.3526       8 -72.3462       9 -72.3462      10 -72.3462
      11 -72.3526      12 -72.4002      13 -72.0914      14 -72.3462      15 -72.3526
      16 -72.3462      17 -72.4002      18 -72.3462      19 -72.3526      20 -72.3462
      21 -72.3462      22 -72.3462      23 -72.3526      24 -72.0914      25 -72.3462
      26 -72.0914      27 -72.3526      28 -72.3462      29 -72.0914      30 -72.0914
      31 -72.3526      32 -72.0914      33 -49.6896
 
 
 
 E-fermi :   8.2904     XC(G=0): -10.2562     alpha+bet :-15.2356
   add alpha+bet to get absolut eigen values

 k-point   1 :       0.2500    0.2500    0.2500
  band No.  band energies     occupation 
      1      -2.6699      2.00000
      2      -1.6648      2.00000
      3      -1.6648      2.00000
      4      -1.3296      2.00000
      5      -0.5633      2.00000
      6      -0.5633      2.00000
      7      -0.1134      2.00000
      8       0.6151      2.00000
      9       0.6151      2.00000
     10       0.6998      2.00000
     11       0.9457      2.00000
     12       1.6103      2.00000
     13       1.6103      2.00000
     14       1.6675      2.00000
     15       1.9624      2.00000
     16       1.9624      2.00000
     17       2.1569      2.00000
     18       2.8317      2.00000
     19       2.9574      2.00000
     20       2.9574      2.00000
     21       3.8591      2.00000
     22       3.8591      2.00000
     23       3.9103      2.00000
     24       4.0303      2.00000
     25       4.0303      2.00000
     26       4.2522      2.00000
     27       4.7712      2.00000
     28       4.7712      2.00000
     29       4.8260      2.00000
     30       5.0462      2.00000
     31       5.1098      2.00000
     32       5.1098      2.00000
     33       5.2178      2.00000
     34       5.2178      2.00000
     35       5.2876      2.00000
     36       5.9880      2.00000
     37       5.9880      2.00000
     38       6.4444      2.00000
     39       6.9821      2.00000
     40       6.9930      2.00000
     41       6.9930      2.00000
     42       7.2007      2.00000
     43       7.2822      2.00000
     44       7.2822      2.00000
     45       7.4380      2.00000
     46       7.9656      2.04393
     47       7.9656      2.04393
     48       8.0523      2.07054
     49       8.2937      0.97177
     50       8.3480      0.53394
     51       8.3480      0.53394
     52       8.5218     -0.06938
     53       8.5218     -0.06938
     54       8.5812     -0.05927
     55       9.2222      0.00000
     56       9.2222      0.00000
     57       9.4766      0.00000
     58       9.6519      0.00000
     59       9.6519      0.00000
     60       9.7305      0.00000
     61      10.1343      0.00000
     62      10.1343      0.00000
     63      10.2285      0.00000
     64      10.3681      0.00000
     65      10.3681      0.00000
     66      10.4596      0.00000
     67      10.4596      0.00000
     68      10.5781      0.00000
     69      10.9937      0.00000
     70      11.1428      0.00000
     71      11.1428      0.00000
     72      11.4708      0.00000
     73      11.5498      0.00000
     74      11.5498      0.00000
     75      11.6078      0.00000
     76      11.7916      0.00000
     77      11.7916      0.00000
     78      11.9598      0.00000
     79      12.4460      0.00000
     80      12.4460      0.00000
     81      12.5071      0.00000
     82      12.7305      0.00000
     83      12.7305      0.00000
     84      13.2764      0.00000
     85      13.3000      0.00000
     86      13.3000      0.00000
     87      13.4525      0.00000
     88      13.4525      0.00000
     89      13.6202      0.00000
     90      13.8352      0.00000
     91      14.0958      0.00000
     92      14.0958      0.00000
     93      14.2581      0.00000
     94      14.3645      0.00000
     95      14.3662      0.00000
     96      14.5317      0.00000


--------------------------------------------------------------------------------------------------------


 soft charge-density along one line, spin component           1
         0         1         2         3         4         5         6         7         8         9
 total charge-density along one line
 
 pseudopotential strength for first ion, spin component:           1
  8.438  -0.006   0.000   0.000   0.000   0.000   0.000   0.000
 -0.006   0.000   0.000   0.000   0.000   0.000   0.000   0.000
  0.000   0.000   1.989   0.000   0.000  -0.027   0.000   0.000
  0.000   0.000   0.000   1.989   0.000   0.000  -0.027   0.000
  0.000   0.000   0.000   0.000   1.989   0.000   0.000  -0.027
  0.000   0.000  -0.027   0.000   0.000  -0.012   0.000   0.000
  0.000   0.000   0.000  -0.027   0.000   0.000  -0.012   0.000
  0.000   0.000   0.000   0.000  -0.027   0.000   0.000  -0.012
 total augmentation occupancy for first ion, spin component:           1
  1.291  -0.539   0.000   0.024   0.000   0.000  -0.002   0.000
 -0.539   0.514   0.000   0.018   0.000   0.000  -0.005   0.000
  0.000   0.000   0.750   0.000   0.000  -0.185   0.000   0.000
  0.024   0.018   0.000   0.782   0.000   0.000  -0.203   0.000
  0.000   0.000   0.000   0.000   0.750   0.000   0.000  -0.185
  0.000   0.000  -0.185   0.000   0.000   0.052   0.000   0.000
 -0.002  -0.005   0.000  -0.203   0.000   0.000   0.059   0.000
  0.000   0.000   0.000   0.000  -0.185   0.000   0.000   0.052


------------------------ aborting loop because EDIFF is reached ----------------------------------------




--------------------------------------------------------------------------------------------------------



  FREE ENERGIE OF THE ION-ELECTRON SYSTEM (eV)
  ---------------------------------------------------
  free  energy   TOTEN  =      -116.274129 eV

  energy  without entropy=     -116.262382  energy(sigma->0) =     -116.270213
 
    CHARGE:  cpu time    0.10: real time    0.10
    FORLOC:  cpu time    0.01: real time    0.02
    FORNL :  cpu time    0.15: real time    0.15
    STRESS:  cpu time    0.27: real time    0.27
    FORCOR:  cpu time    0.06: real time    0.07
    FORHAR:  cpu time    0.03: real time    0.03
    MIXING:  cpu time    0.00: real time    0.00

  FORCE on cell =-STRESS in cart. coord.  units (eV):
  Direction    XX          YY          ZZ          XY          YZ          ZX
  --------------------------------------------------------------------------------------
  Alpha Z    -8.27958    -8.27958    -8.27958
  Ewald    -796.15315  -796.15315  -796.15315     0.00000     0.00000     0.00000
  Hartree     5.07068     5.07068     5.07068     0.00000     0.00000     0.00000
  E(xc)    -283.40977  -283.40977  -283.40977     0.00000     0.00000     0.00000
  Local       2.89179     2.89179     2.89179     0.00000     0.00000     0.00000
  n-local   629.60797   629.60796   629.60797    -1.04662    -1.04664    -1.04662
  augment   -31.69312   -31.69312   -31.69313     0.00000     0.00000     0.00000
  Kinetic   502.04609   502.04608   502.04608    -8.39626    -8.39625    -8.39627
  Fock        0.00000     0.00000     0.00000     0.00000     0.00000     0.00000
  -------------------------------------------------------------------------------------
  Total      20.08090    20.08090    20.08090     0.00000     0.00000     0.00000
  in kB      60.83099    60.83099    60.83099     0.00000     0.00000     0.00000
  external pressure =       60.83 kB  Pullay stress =        0.00 kB


 VOLUME and BASIS-vectors are now :
 -----------------------------------------------------------------------------
  energy-cutoff  :      300.00
  volume of cell :      528.89
      direct lattice vectors                 reciprocal lattice vectors
     8.087040000  0.000000000  0.000000000     0.123654638  0.000000000  0.000000000
     0.000000000  8.087040000  0.000000000     0.000000000  0.123654638  0.000000000
     0.000000000  0.000000000  8.087040000     0.000000000  0.000000000  0.123654638

  length of vectors
     8.087040000  8.087040000  8.087040000     0.123654638  0.123654638  0.123654638


 FORCES acting on ions
    electron-ion (+dipol)            ewald-force                    non-local-force                 convergence-correction
 -----------------------------------------------------------------------------------------------
   0.722E-14 -.111E-14 -.135E+01   0.761E-14 0.239E-14 0.163E+01   0.260E-17 -.130E-17 -.349E+00   -.368E-13 0.269E-13 -.303E-03
   0.135E+01 -.435E-14 -.389E-07   -.163E+01 0.506E-14 -.315E-14   0.349E+00 -.867E-18 0.564E-17   0.303E-03 0.154E-13 0.837E-14
   -.241E+01 -.241E+01 0.241E+01   0.237E+01 0.237E+01 -.237E+01   0.649E-01 0.649E-01 -.649E-01   0.162E-03 0.162E-03 -.162E-03
   0.846E-14 0.135E+01 -.389E-07   0.111E-13 -.163E+01 -.978E-15   -.434E-17 0.349E+00 -.564E-17   0.281E-13 0.303E-03 -.386E-13
   -.331E-14 -.172E-13 0.599E+00   0.515E-14 -.482E-14 -.133E+00   -.781E-17 -.260E-17 -.454E+00   0.386E-13 0.590E-13 -.414E-03
   -.135E+01 0.630E-13 0.389E-07   0.163E+01 0.550E-14 0.242E-15   -.349E+00 0.260E-17 -.434E-18   -.303E-03 0.429E-14 -.899E-13
   0.241E+01 -.241E+01 0.241E+01   -.237E+01 0.237E+01 -.237E+01   -.649E-01 0.649E-01 -.649E-01   -.162E-03 0.162E-03 -.162E-03
   -.106E-15 -.599E+00 -.914E-07   0.320E-14 0.133E+00 -.445E-14   0.867E-18 0.454E+00 -.113E-16   -.236E-13 0.413E-03 -.713E-13
   0.101E-13 -.719E-14 0.599E+00   0.909E-14 0.373E-14 -.133E+00   -.113E-16 -.867E-18 -.454E+00   0.861E-13 -.387E-13 -.414E-03
   -.599E+00 -.546E-13 -.914E-07   0.133E+00 0.115E-13 -.410E-15   0.454E+00 0.000E+00 -.165E-16   0.413E-03 -.118E-13 -.578E-13
   -.241E+01 0.241E+01 0.241E+01   0.237E+01 -.237E+01 -.237E+01   0.649E-01 -.649E-01 -.649E-01   0.162E-03 -.162E-03 -.162E-03
   0.825E-14 -.135E+01 0.389E-07   0.213E-14 0.163E+01 0.111E-13   0.347E-17 -.349E+00 -.304E-17   0.318E-13 -.303E-03 -.273E-13
   -.361E-14 0.759E-13 0.149E+02   0.126E-13 -.179E-14 -.143E+02   -.260E-17 0.434E-18 -.404E+00   -.767E-13 -.706E-13 -.246E-03
   0.599E+00 0.666E-13 0.914E-07   -.133E+00 -.223E-15 -.657E-14   -.454E+00 0.000E+00 0.607E-17   -.413E-03 -.323E-13 -.209E-13
   0.241E+01 0.241E+01 0.241E+01   -.237E+01 -.237E+01 -.237E+01   -.649E-01 -.649E-01 -.649E-01   -.162E-03 -.162E-03 -.162E-03
   -.117E-14 0.599E+00 0.914E-07   -.521E-14 -.133E+00 -.228E-13   0.260E-17 -.454E+00 0.607E-17   -.269E-13 -.413E-03 -.154E-14
   0.667E-14 -.114E-13 0.135E+01   0.146E-13 0.664E-14 -.163E+01   0.260E-17 -.217E-17 0.349E+00   0.755E-13 0.159E-13 0.303E-03
   -.599E+00 -.105E-13 -.858E-07   0.133E+00 0.578E-15 -.127E-13   0.454E+00 0.607E-17 -.867E-18   0.414E-03 0.267E-13 -.170E-13
   -.241E+01 -.241E+01 -.241E+01   0.237E+01 0.237E+01 0.237E+01   0.649E-01 0.649E-01 0.649E-01   0.162E-03 0.162E-03 0.162E-03
   0.638E-14 -.599E+00 -.858E-07   0.694E-14 0.133E+00 -.755E-14   -.173E-17 0.454E+00 -.867E-18   0.406E-13 0.414E-03 0.361E-13
   -.142E-14 -.619E-13 -.599E+00   -.419E-14 -.126E-14 0.133E+00   0.781E-17 0.607E-17 0.454E+00   -.693E-13 -.888E-14 0.414E-03
   0.599E+00 0.378E-13 0.858E-07   -.133E+00 0.591E-14 -.705E-14   -.454E+00 -.867E-18 0.607E-17   -.414E-03 0.502E-13 0.108E-12
   0.241E+01 -.241E+01 -.241E+01   -.237E+01 0.237E+01 0.237E+01   -.649E-01 0.649E-01 0.649E-01   -.162E-03 0.162E-03 0.162E-03
   -.468E-14 -.149E+02 -.142E-07   0.928E-14 0.143E+02 0.788E-14   -.434E-18 0.404E+00 0.304E-17   -.382E-13 0.246E-03 0.849E-13
   0.803E-14 -.136E-13 -.599E+00   -.771E-16 0.355E-14 0.133E+00   0.954E-17 0.165E-16 0.454E+00   0.550E-13 -.192E-13 0.414E-03
   -.149E+02 -.706E-14 -.142E-07   0.143E+02 -.444E-14 -.523E-14   0.404E+00 0.260E-17 0.347E-17   0.246E-03 -.210E-13 0.315E-13
   -.241E+01 0.241E+01 -.241E+01   0.237E+01 -.237E+01 0.237E+01   0.649E-01 -.649E-01 0.649E-01   0.162E-03 -.162E-03 0.162E-03
   0.762E-14 0.599E+00 0.858E-07   0.147E-14 -.133E+00 0.183E-14   0.121E-16 -.454E+00 0.434E-17   0.784E-13 -.414E-03 0.168E-13
   -.192E-14 0.272E-13 -.149E+02   0.294E-14 0.127E-16 0.143E+02   0.173E-17 -.217E-17 0.404E+00   -.541E-13 -.434E-16 0.246E-03
   0.149E+02 0.703E-14 0.142E-07   -.143E+02 0.622E-14 -.839E-14   -.404E+00 0.000E+00 0.000E+00   -.246E-03 -.699E-13 0.172E-13
   0.241E+01 0.241E+01 -.241E+01   -.237E+01 -.237E+01 0.237E+01   -.649E-01 -.649E-01 0.649E-01   -.162E-03 -.162E-03 0.162E-03
   -.457E-14 0.149E+02 0.142E-07   0.730E-14 -.143E+02 -.138E-14   0.217E-17 -.404E+00 0.217E-17   -.663E-13 -.246E-03 0.167E-13
   -.419E-14 -.121E-12 0.175E-13   0.831E-14 -.865E-15 0.122E-14   0.000E+00 0.000E+00 0.116E-22   -.477E-13 -.309E-13 0.241E-13
 -----------------------------------------------------------------------------------------------
   0.442E-11 0.457E-11 -.709E-12   -.822E-15 0.269E-14 -.752E-13   -.256E-16 0.000E+00 -.317E-15   0.521E-13 0.208E-13 -.181E-13
 
 
 POSITION                                       TOTAL-FORCE (eV/Angst)
 -----------------------------------------------------------------------------------
      0.00000      0.00000      0.04641         0.000000      0.000000     -0.068587
      1.97535      0.00000      2.02176         0.068587      0.000000      0.000000
      2.06298      2.06298     -0.04122         0.025728      0.025728     -0.025728
      0.00000      1.97535      2.02176         0.000000      0.068587      0.000000
      4.04352      0.00000      0.13738         0.000000      0.000000      0.011924
      6.11169      0.00000      2.02176        -0.068587      0.000000      0.000000
      6.02406      2.06298     -0.04122        -0.025728      0.025728     -0.025728
      4.04352      1.88438      2.02176         0.000000     -0.011924      0.000000
      0.00000      4.04352      0.13738         0.000000      0.000000      0.011924
      1.88438      4.04352      2.02176        -0.011924      0.000000      0.000000
      2.06298      6.02406     -0.04122         0.025728     -0.025728     -0.025728
      0.00000      6.11169      2.02176         0.000000     -0.068587      0.000000
      4.04352      4.04352      0.54590         0.000000      0.000000      0.144035
      6.20266      4.04352      2.02176         0.011924      0.000000      0.000000
      6.02406      6.02406     -0.04122        -0.025728     -0.025728     -0.025728
      4.04352      6.20266      2.02176         0.000000      0.011924      0.000000
      0.00000      0.00000      3.99711         0.000000      0.000000      0.068587
      1.88438      0.00000      6.06528        -0.011924      0.000000      0.000000
      2.06298      2.06298      4.08474         0.025728      0.025728      0.025728
      0.00000      1.88438      6.06528         0.000000     -0.011924      0.000000
      4.04352      0.00000      3.90614         0.000000      0.000000     -0.011924
      6.20266      0.00000      6.06528         0.011924      0.000000      0.000000
      6.02406      2.06298      4.08474        -0.025728      0.025728      0.025728
      4.04352      1.47586      6.06528         0.000000     -0.144035      0.000000
      0.00000      4.04352      3.90614         0.000000      0.000000     -0.011924
      1.47586      4.04352      6.06528        -0.144035      0.000000      0.000000
      2.06298      6.02406      4.08474         0.025728     -0.025728      0.025728
      0.00000      6.20266      6.06528         0.000000      0.011924      0.000000
      4.04352      4.04352      3.49762         0.000000      0.000000     -0.144035
      6.61118      4.04352      6.06528         0.144035      0.000000      0.000000
      6.02406      6.02406      4.08474        -0.025728     -0.025728      0.025728
      4.04352      6.61118      6.06528         0.000000      0.144035      0.000000
      4.04352      4.04352      6.06528         0.000000      0.000000      0.000000
 -----------------------------------------------------------------------------------
    total drift:                                0.000000      0.000000      0.000000
 d Force = 0.1185229E-01[-0.194E-02, 0.256E-01]  d Energy = 0.1206566E-01-0.213E-03
 d Force = 0.2255640E+00[ 0.141E+00, 0.311E+00]  d Ewald  = 0.2261139E+00-0.550E-03


--------------------------------------------------------------------------------------------------------


    POTLOK:  cpu time    0.07: real time    0.07


--------------------------------------------------------------------------------------------------------


  FORCES: max atom, RMS     0.144035    0.071836
  FORCE total and by dimension    0.412667    0.144035


--------------------------------------------------------------------------------------------------------


  
 reached required accuracy - stopping structural energy minimisation
     LOOP+:  cpu time    2.83: real time    2.86
    4ORBIT:  cpu time    0.00: real time    0.00

 total amount of memory used by VASP on root node  55665. kBytes
========================================================================

   base      :    30000. kBytes
   nonl-proj :     4093. kBytes
   fftplans  :     1413. kBytes
   grid      :    19745. kBytes
   one-center:      101. kBytes
   wavefun   :      313. kBytes
 
  
  
 General timing and accounting informations for this job:
 ========================================================
  
                  Total CPU time used (sec):       27.922
                            User time (sec):       27.603
                          System time (sec):        0.319
                         Elapsed time (sec):       29.852
  
                   Maximum memory used (kb):           0.
                   Average memory used (kb):           0.
  
                          Minor page faults:        26938
                          Major page faults:            0
                 Voluntary context switches:         3492
