  31  31   0   0
  0.1706119E+02  0.8087054E-09  0.8087054E-09  0.8087054E-09  0.5000000E-15
  1.000000000000000E-004
  CAR 
 unknown system                          
     12.06647274     -4.95570922  301      7.85315471      1.00000000
     -4.956  0.0000E+00  0.0000E+00
     -4.899  0.0000E+00  0.0000E+00
     -4.842  0.0000E+00  0.0000E+00
     -4.785  0.0000E+00  0.0000E+00
     -4.729  0.0000E+00  0.0000E+00
     -4.672  0.0000E+00  0.0000E+00
     -4.615  0.0000E+00  0.0000E+00
     -4.559 -0.4792E-28 -0.2719E-29
     -4.502 -0.3992E-26 -0.2292E-27
     -4.445 -0.2855E-24 -0.1643E-25
     -4.388 -0.1735E-22 -0.1001E-23
     -4.332 -0.8959E-21 -0.5183E-22
     -4.275 -0.3929E-19 -0.2281E-20
     -4.218 -0.1463E-17 -0.8532E-19
     -4.161 -0.4628E-16 -0.2711E-17
     -4.105 -0.1206E-14 -0.7114E-16
     -4.048 -0.2734E-13 -0.1622E-14
     -3.991 -0.5257E-12 -0.3145E-13
     -3.934 -0.8562E-11 -0.5173E-12
     -3.878 -0.1180E-09 -0.7212E-11
     -3.821 -0.1374E-08 -0.8519E-10
     -3.764 -0.1351E-07 -0.8517E-09
     -3.707 -0.1119E-06 -0.7201E-08
     -3.651 -0.7792E-06 -0.5141E-07
     -3.594 -0.4546E-05 -0.3094E-06
     -3.537 -0.2212E-04 -0.1565E-05
     -3.480 -0.8920E-04 -0.6626E-05
     -3.424 -0.2948E-03 -0.2335E-04
     -3.367 -0.7838E-03 -0.6783E-04
     -3.310 -0.1613E-02 -0.1594E-03
     -3.253 -0.2326E-02 -0.2913E-03
     -3.197 -0.1403E-02 -0.3709E-03
     -3.140  0.3577E-02 -0.1680E-03
     -3.083  0.1419E-01  0.6370E-03
     -3.027  0.2850E-01  0.2254E-02
     -2.970  0.4047E-01  0.4550E-02
     -2.913  0.4352E-01  0.7019E-02
     -2.856  0.3581E-01  0.9051E-02
     -2.800  0.2187E-01  0.1029E-01
     -2.743  0.8701E-02  0.1079E-01
     -2.686  0.6664E-03  0.1082E-01
     -2.629 -0.2170E-02  0.1070E-01
     -2.573 -0.2089E-02  0.1058E-01
     -2.516 -0.1224E-02  0.1051E-01
     -2.459 -0.5957E-03  0.1048E-01
     -2.402 -0.4543E-03  0.1045E-01
     -2.346 -0.8652E-03  0.1040E-01
     -2.289 -0.1928E-02  0.1029E-01
     -2.232 -0.3426E-02  0.1010E-01
     -2.175 -0.3994E-02  0.9874E-02
     -2.119 -0.5199E-03  0.9844E-02
     -2.062  0.1082E-01  0.1046E-01
     -2.005  0.3135E-01  0.1224E-01
     -1.948  0.5680E-01  0.1546E-01
     -1.892  0.7836E-01  0.1991E-01
     -1.835  0.8840E-01  0.2492E-01
     -1.778  0.8563E-01  0.2978E-01
     -1.721  0.7432E-01  0.3400E-01
     -1.665  0.5936E-01  0.3737E-01
     -1.608  0.4320E-01  0.3982E-01
     -1.551  0.2713E-01  0.4136E-01
     -1.495  0.1313E-01  0.4210E-01
     -1.438  0.3402E-02  0.4229E-01
     -1.381 -0.1387E-02  0.4222E-01
     -1.324 -0.2560E-02  0.4207E-01
     -1.268 -0.2218E-02  0.4194E-01
     -1.211 -0.2000E-02  0.4183E-01
     -1.154 -0.2610E-02  0.4168E-01
     -1.097 -0.3642E-02  0.4148E-01
     -1.041 -0.3175E-02  0.4130E-01
     -0.984  0.2225E-02  0.4142E-01
     -0.927  0.1576E-01  0.4232E-01
     -0.870  0.3696E-01  0.4441E-01
     -0.814  0.5966E-01  0.4780E-01
     -0.757  0.7470E-01  0.5204E-01
     -0.700  0.7640E-01  0.5637E-01
     -0.643  0.6681E-01  0.6016E-01
     -0.587  0.5348E-01  0.6320E-01
     -0.530  0.4323E-01  0.6565E-01
     -0.473  0.3775E-01  0.6779E-01
     -0.416  0.3424E-01  0.6973E-01
     -0.360  0.2912E-01  0.7139E-01
     -0.303  0.2119E-01  0.7259E-01
     -0.246  0.1203E-01  0.7327E-01
     -0.189  0.4254E-02  0.7351E-01
     -0.133 -0.7416E-03  0.7347E-01
     -0.076 -0.3433E-02  0.7328E-01
     -0.019 -0.5006E-02  0.7299E-01
      0.037 -0.5390E-02  0.7269E-01
      0.094 -0.2019E-02  0.7257E-01
      0.151  0.9282E-02  0.7310E-01
      0.208  0.3090E-01  0.7485E-01
      0.264  0.5967E-01  0.7824E-01
      0.321  0.8670E-01  0.8316E-01
      0.378  0.1024E+00  0.8897E-01
      0.435  0.1029E+00  0.9481E-01
      0.491  0.9210E-01  0.1000E+00
      0.548  0.7736E-01  0.1044E+00
      0.605  0.6387E-01  0.1080E+00
      0.662  0.5192E-01  0.1110E+00
      0.718  0.3935E-01  0.1132E+00
      0.775  0.2551E-01  0.1147E+00
      0.832  0.1245E-01  0.1154E+00
      0.889  0.2874E-02  0.1155E+00
      0.945 -0.2493E-02  0.1154E+00
      1.002 -0.5136E-02  0.1151E+00
      1.059 -0.6832E-02  0.1147E+00
      1.116 -0.7194E-02  0.1143E+00
      1.172 -0.2336E-02  0.1142E+00
      1.229  0.1382E-01  0.1150E+00
      1.286  0.4496E-01  0.1175E+00
      1.342  0.8673E-01  0.1224E+00
      1.399  0.1257E+00  0.1296E+00
      1.456  0.1459E+00  0.1378E+00
      1.513  0.1399E+00  0.1458E+00
      1.569  0.1144E+00  0.1523E+00
      1.626  0.8480E-01  0.1571E+00
      1.683  0.6404E-01  0.1607E+00
      1.740  0.5523E-01  0.1639E+00
      1.796  0.5355E-01  0.1669E+00
      1.853  0.5278E-01  0.1699E+00
      1.910  0.4921E-01  0.1727E+00
      1.967  0.4166E-01  0.1750E+00
      2.023  0.3066E-01  0.1768E+00
      2.080  0.1834E-01  0.1778E+00
      2.137  0.7658E-02  0.1783E+00
      2.194  0.5675E-03  0.1783E+00
      2.250 -0.3116E-02  0.1781E+00
      2.307 -0.4941E-02  0.1778E+00
      2.364 -0.5788E-02  0.1775E+00
      2.421 -0.4098E-02  0.1773E+00
      2.477  0.4152E-02  0.1775E+00
      2.534  0.2280E-01  0.1788E+00
      2.591  0.5118E-01  0.1817E+00
      2.648  0.8170E-01  0.1863E+00
      2.704  0.1028E+00  0.1922E+00
      2.761  0.1059E+00  0.1982E+00
      2.818  0.9062E-01  0.2033E+00
      2.874  0.6418E-01  0.2070E+00
      2.931  0.3646E-01  0.2090E+00
      2.988  0.1486E-01  0.2099E+00
      3.045  0.2062E-02  0.2100E+00
      3.101 -0.3422E-02  0.2098E+00
      3.158 -0.5034E-02  0.2095E+00
      3.215 -0.5889E-02  0.2092E+00
      3.272 -0.7105E-02  0.2088E+00
      3.328 -0.6743E-02  0.2084E+00
      3.385  0.3429E-03  0.2084E+00
      3.442  0.2062E-01  0.2096E+00
      3.499  0.5736E-01  0.2128E+00
      3.555  0.1056E+00  0.2188E+00
      3.612  0.1512E+00  0.2274E+00
      3.669  0.1763E+00  0.2374E+00
      3.726  0.1699E+00  0.2471E+00
      3.782  0.1359E+00  0.2548E+00
      3.839  0.9126E-01  0.2599E+00
      3.896  0.5570E-01  0.2631E+00
      3.953  0.3882E-01  0.2653E+00
      4.009  0.3608E-01  0.2673E+00
      4.066  0.3567E-01  0.2694E+00
      4.123  0.2918E-01  0.2710E+00
      4.180  0.1664E-01  0.2720E+00
      4.236  0.3248E-02  0.2722E+00
      4.293 -0.5798E-02  0.2718E+00
      4.350 -0.6895E-02  0.2714E+00
      4.406  0.3372E-02  0.2716E+00
      4.463  0.2795E-01  0.2732E+00
      4.520  0.6588E-01  0.2770E+00
      4.577  0.1094E+00  0.2832E+00
      4.633  0.1462E+00  0.2915E+00
      4.690  0.1664E+00  0.3009E+00
      4.747  0.1687E+00  0.3105E+00
      4.804  0.1594E+00  0.3195E+00
      4.860  0.1466E+00  0.3278E+00
      4.917  0.1341E+00  0.3354E+00
      4.974  0.1212E+00  0.3423E+00
      5.031  0.1063E+00  0.3483E+00
      5.087  0.9044E-01  0.3535E+00
      5.144  0.7541E-01  0.3578E+00
      5.201  0.6133E-01  0.3612E+00
      5.258  0.4661E-01  0.3639E+00
      5.314  0.3046E-01  0.3656E+00
      5.371  0.1465E-01  0.3664E+00
      5.428  0.2468E-02  0.3666E+00
      5.485 -0.3109E-02  0.3664E+00
      5.541 -0.3212E-03  0.3664E+00
      5.598  0.1109E-01  0.3670E+00
      5.655  0.2882E-01  0.3687E+00
      5.712  0.4741E-01  0.3713E+00
      5.768  0.6019E-01  0.3748E+00
      5.825  0.6312E-01  0.3783E+00
      5.882  0.5668E-01  0.3816E+00
      5.938  0.4434E-01  0.3841E+00
      5.995  0.3023E-01  0.3858E+00
      6.052  0.1843E-01  0.3868E+00
      6.109  0.1297E-01  0.3876E+00
      6.165  0.1613E-01  0.3885E+00
      6.222  0.2592E-01  0.3900E+00
      6.279  0.3582E-01  0.3920E+00
      6.336  0.3850E-01  0.3942E+00
      6.392  0.3094E-01  0.3959E+00
      6.449  0.1680E-01  0.3969E+00
      6.506  0.4677E-02  0.3971E+00
      6.563  0.4103E-02  0.3974E+00
      6.619  0.2087E-01  0.3986E+00
      6.676  0.5277E-01  0.4016E+00
      6.733  0.8886E-01  0.4066E+00
      6.790  0.1161E+00  0.4132E+00
      6.846  0.1300E+00  0.4206E+00
      6.903  0.1376E+00  0.4284E+00
      6.960  0.1479E+00  0.4368E+00
      7.017  0.1594E+00  0.4458E+00
      7.073  0.1595E+00  0.4549E+00
      7.130  0.1380E+00  0.4627E+00
      7.187  0.9773E-01  0.4682E+00
      7.244  0.5288E-01  0.4712E+00
      7.300  0.1798E-01  0.4723E+00
      7.357 -0.1172E-02  0.4722E+00
      7.414 -0.7772E-02  0.4717E+00
      7.470 -0.8448E-02  0.4713E+00
      7.527 -0.7910E-02  0.4708E+00
      7.584 -0.6535E-02  0.4704E+00
      7.641 -0.7339E-03  0.4704E+00
      7.697  0.1430E-01  0.4712E+00
      7.754  0.4013E-01  0.4735E+00
      7.811  0.7183E-01  0.4776E+00
      7.868  0.1002E+00  0.4833E+00
      7.924  0.1188E+00  0.4900E+00
      7.981  0.1301E+00  0.4974E+00
      8.038  0.1424E+00  0.5055E+00
      8.095  0.1609E+00  0.5146E+00
      8.151  0.1808E+00  0.5248E+00
      8.208  0.1899E+00  0.5356E+00
      8.265  0.1788E+00  0.5458E+00
      8.322  0.1475E+00  0.5541E+00
      8.378  0.1052E+00  0.5601E+00
      8.435  0.6383E-01  0.5637E+00
      8.492  0.3142E-01  0.5655E+00
      8.549  0.1057E-01  0.5661E+00
      8.605 -0.2314E-03  0.5661E+00
      8.662 -0.4371E-02  0.5658E+00
      8.719 -0.5456E-02  0.5655E+00
      8.776 -0.6081E-02  0.5652E+00
      8.832 -0.6649E-02  0.5648E+00
      8.889 -0.4462E-02  0.5646E+00
      8.946  0.5657E-02  0.5649E+00
      9.002  0.2773E-01  0.5665E+00
      9.059  0.5933E-01  0.5698E+00
      9.116  0.9025E-01  0.5749E+00
      9.173  0.1095E+00  0.5812E+00
      9.229  0.1156E+00  0.5877E+00
      9.286  0.1177E+00  0.5944E+00
      9.343  0.1248E+00  0.6015E+00
      9.400  0.1335E+00  0.6090E+00
      9.456  0.1312E+00  0.6165E+00
      9.513  0.1090E+00  0.6227E+00
      9.570  0.7155E-01  0.6267E+00
      9.627  0.3268E-01  0.6286E+00
      9.683  0.4696E-02  0.6289E+00
      9.740 -0.7795E-02  0.6284E+00
      9.797 -0.5324E-02  0.6281E+00
      9.854  0.1054E-01  0.6287E+00
      9.910  0.3661E-01  0.6308E+00
      9.967  0.6474E-01  0.6345E+00
     10.024  0.8254E-01  0.6392E+00
     10.081  0.8091E-01  0.6437E+00
     10.137  0.6122E-01  0.6472E+00
     10.194  0.3429E-01  0.6492E+00
     10.251  0.1194E-01  0.6498E+00
     10.308 -0.3509E-03  0.6498E+00
     10.364 -0.4064E-02  0.6496E+00
     10.421 -0.3474E-02  0.6494E+00
     10.478 -0.1929E-02  0.6493E+00
     10.534 -0.8156E-03  0.6492E+00
     10.591 -0.2767E-03  0.6492E+00
     10.648 -0.7709E-04  0.6492E+00
     10.705 -0.1786E-04  0.6492E+00
     10.761 -0.3465E-05  0.6492E+00
     10.818 -0.5657E-06  0.6492E+00
     10.875 -0.7798E-07  0.6492E+00
     10.932 -0.9091E-08  0.6492E+00
     10.988 -0.8979E-09  0.6492E+00
     11.045 -0.7519E-10  0.6492E+00
     11.102 -0.5344E-11  0.6492E+00
     11.159 -0.3224E-12  0.6492E+00
     11.215 -0.1653E-13  0.6492E+00
     11.272 -0.7171E-15  0.6492E+00
     11.329 -0.2049E-16  0.6492E+00
     11.386  0.0000E+00  0.6492E+00
     11.442  0.0000E+00  0.6492E+00
     11.499  0.0000E+00  0.6492E+00
     11.556  0.0000E+00  0.6492E+00
     11.613  0.0000E+00  0.6492E+00
     11.669  0.0000E+00  0.6492E+00
     11.726  0.0000E+00  0.6492E+00
     11.783  0.0000E+00  0.6492E+00
     11.840  0.0000E+00  0.6492E+00
     11.896  0.0000E+00  0.6492E+00
     11.953  0.0000E+00  0.6492E+00
     12.010  0.0000E+00  0.6492E+00
     12.066  0.0000E+00  0.6492E+00
