   31   31  191    1
  0.1706119E+02  0.8087054E-09  0.8087054E-09  0.8087054E-09  0.5000000E-15
  1.000000000000000E-004
  CAR 
 unknown system                          
   92    2   62
 
  0.2500000E+00  0.2500000E+00  0.2500000E+00  0.5000000E+00
   1       -2.952820
   2       -1.922995
   3       -1.872403
   4       -1.638493
   5       -0.802130
   6       -0.748485
   7       -0.383826
   8        0.294380
   9        0.333120
  10        0.504135
  11        0.613723
  12        1.348157
  13        1.402047
  14        1.420243
  15        1.554092
  16        1.729988
  17        1.967659
  18        2.662276
  19        2.677896
  20        2.848794
  21        3.542670
  22        3.613883
  23        3.660936
  24        3.714509
  25        3.752564
  26        4.038849
  27        4.541861
  28        4.596007
  29        4.635146
  30        4.756397
  31        4.813242
  32        4.884223
  33        4.934951
  34        5.058122
  35        5.240495
  36        5.718901
  37        5.833046
  38        6.333701
  39        6.737723
  40        6.763618
  41        6.797418
  42        6.970628
  43        7.014391
  44        7.072761
  45        7.115540
  46        7.814794
  47        7.846231
  48        7.940204
  49        8.080529
  50        8.165385
  51        8.229191
  52        8.258040
  53        8.330068
  54        8.416419
  55        9.091770
  56        9.154907
  57        9.165384
  58        9.395733
  59        9.417609
  60        9.479900
  61        9.987473
  62       10.066473
 
 -0.2500000E+00  0.2500000E+00  0.2500000E+00  0.5000000E+00
   1       -2.955709
   2       -1.916178
   3       -1.815282
   4       -1.706203
   5       -0.800470
   6       -0.666118
   7       -0.519879
   8        0.299797
   9        0.400612
  10        0.434063
  11        0.685560
  12        1.376678
  13        1.460899
  14        1.473623
  15        1.506300
  16        1.727139
  17        1.872304
  18        2.630535
  19        2.735463
  20        2.772579
  21        3.553146
  22        3.626403
  23        3.654760
  24        3.689423
  25        3.765843
  26        4.007183
  27        4.571810
  28        4.654207
  29        4.676562
  30        4.723932
  31        4.743710
  32        4.915865
  33        4.934742
  34        5.055966
  35        5.180130
  36        5.731967
  37        5.951951
  38        6.261290
  39        6.756479
  40        6.776875
  41        6.881892
  42        7.005173
  43        7.023280
  44        7.059418
  45        7.135280
  46        7.846392
  47        7.912307
  48        7.978867
  49        8.068939
  50        8.128045
  51        8.137116
  52        8.181683
  53        8.227799
  54        8.277310
  55        9.135349
  56        9.158878
  57        9.303885
  58        9.397626
  59        9.402967
  60        9.482680
  61       10.003415
  62       10.019998
