       N       E                     dE             d eps       ncg     rms          rms(c)
RMM:   1     0.299486783646E+03    0.29949E+03   -0.16974E+04   124   0.643E+02
RMM:   2    -0.136701898954E+02   -0.31316E+03   -0.30896E+03   124   0.137E+02
RMM:   3    -0.852473679124E+02   -0.71577E+02   -0.74778E+02   124   0.468E+01
RMM:   4    -0.102213993831E+03   -0.16967E+02   -0.17243E+02   124   0.276E+01
RMM:   5    -0.108793606252E+03   -0.65796E+01   -0.55804E+01   124   0.150E+01
RMM:   6    -0.111345526613E+03   -0.25519E+01   -0.21175E+01   124   0.897E+00
RMM:   7    -0.112430242858E+03   -0.10847E+01   -0.90262E+00   124   0.551E+00
RMM:   8    -0.112943785114E+03   -0.51354E+00   -0.43304E+00   124   0.358E+00
RMM:   9    -0.113424650300E+03   -0.48087E+00   -0.42472E+00   300   0.235E+00
RMM:  10    -0.113517188083E+03   -0.92538E-01   -0.41817E-01   279   0.556E-01
RMM:  11    -0.113529228774E+03   -0.12041E-01   -0.29720E-02   233   0.132E-01
RMM:  12    -0.113529483543E+03   -0.25477E-03   -0.11593E-03   181   0.391E-02    0.588E+00
RMM:  13    -0.112050139851E+03    0.14793E+01   -0.49780E+00   248   0.281E+00    0.339E+00
RMM:  14    -0.111808632128E+03    0.24151E+00   -0.36132E-01   256   0.108E+00    0.205E+00
RMM:  15    -0.111701940199E+03    0.10669E+00   -0.13213E-01   252   0.753E-01    0.469E-01
RMM:  16    -0.111693819452E+03    0.81207E-02   -0.24016E-02   261   0.268E-01    0.973E-02
RMM:  17    -0.111693163073E+03    0.65638E-03   -0.33181E-03   251   0.105E-01    0.276E-02
RMM:  18    -0.111693163947E+03   -0.87380E-06   -0.22646E-04   179   0.347E-02
   1 F= -.11169316E+03 E0= -.11167507E+03  d E =-.111693E+03
       N       E                     dE             d eps       ncg     rms          rms(c)
RMM:   1    -0.112099933844E+03   -0.40677E+00   -0.30589E+00   248   0.500E+00    0.357E-01
RMM:   2    -0.112085093303E+03    0.14841E-01   -0.58828E-02   253   0.658E-01    0.148E-01
RMM:   3    -0.112083891198E+03    0.12021E-02   -0.81695E-03   257   0.210E-01    0.621E-02
RMM:   4    -0.112083913455E+03   -0.22257E-04   -0.58519E-04   208   0.594E-02
   2 F= -.11208391E+03 E0= -.11206839E+03  d E =-.390750E+00
       N       E                     dE             d eps       ncg     rms          rms(c)
RMM:   1    -0.112613362332E+03   -0.52947E+00   -0.23301E+01   248   0.137E+01    0.869E-01
RMM:   2    -0.112536112001E+03    0.77250E-01   -0.40593E-01   258   0.175E+00    0.429E-01
RMM:   3    -0.112525126967E+03    0.10985E-01   -0.10461E-01   251   0.640E-01    0.159E-01
RMM:   4    -0.112524053060E+03    0.10739E-02   -0.67492E-03   265   0.172E-01    0.109E-01
RMM:   5    -0.112524163963E+03   -0.11090E-03   -0.75038E-04   260   0.702E-02    0.325E-02
RMM:   6    -0.112524177391E+03   -0.13428E-04   -0.59014E-05   144   0.233E-02
   3 F= -.11252418E+03 E0= -.11251219E+03  d E =-.831013E+00
       N       E                     dE             d eps       ncg     rms          rms(c)
RMM:   1    -0.112565325541E+03   -0.41162E-01   -0.60231E-01   248   0.224E+00    0.158E-01
RMM:   2    -0.112562610713E+03    0.27148E-02   -0.10450E-02   257   0.287E-01    0.662E-02
RMM:   3    -0.112562398621E+03    0.21209E-03   -0.19571E-03   244   0.923E-02    0.258E-02
RMM:   4    -0.112562405790E+03   -0.71687E-05   -0.26226E-04   179   0.310E-02
   4 F= -.11256241E+03 E0= -.11255036E+03  d E =-.382284E-01
       N       E                     dE             d eps       ncg     rms          rms(c)
RMM:   1    -0.112576246300E+03   -0.13848E-01   -0.52126E-01   248   0.209E+00    0.147E-01
RMM:   2    -0.112574028511E+03    0.22178E-02   -0.91030E-03   256   0.269E-01    0.633E-02
RMM:   3    -0.112573855306E+03    0.17320E-03   -0.16500E-03   244   0.856E-02    0.253E-02
RMM:   4    -0.112573859376E+03   -0.40695E-05   -0.17983E-04   170   0.276E-02
   5 F= -.11257386E+03 E0= -.11256086E+03  d E =-.496820E-01
