 vasp.5.2.2 15Apr09 complex 
 executed on             LinuxIFC date 2014.04.24  09:59:40
 running on    1 nodes
 distr:  one band on    1 nodes,    1 groups


--------------------------------------------------------------------------------------------------------


 INCAR:
 POTCAR:   PAW_PBE Mg 05Jan2001                   
 POTCAR:   PAW_PBE Al 04Jan2001                   
 POTCAR:   PAW_PBE Mg 05Jan2001                   
   VRHFIN =Mg: s2p0                                                             
   LEXCH  = PE                                                                  
   EATOM  =    23.0029 eV,    1.6907 Ry                                         
                                                                                
   TITEL  = PAW_PBE Mg 05Jan2001                                                
   LULTRA =        F    use ultrasoft PP ?                                      
   IUNSCR =        1    unscreen: 0-lin 1-nonlin 2-no                           
   RPACOR =    2.000    partial core radius                                     
   POMASS =   24.305; ZVAL   =    2.000    mass and valenz                      
   RCORE  =    2.000    outmost cutoff radius                                   
   RWIGS  =    2.880; RWIGS  =    1.524    wigner-seitz radius (au A)           
   ENMAX  =  210.012; ENMIN  =  157.509 eV                                      
   ICORE  =        2    local potential                                         
   LCOR   =        T    correct aug charges                                     
   LPAW   =        T    paw PP                                                  
   EAUG   =  274.554                                                            
   DEXC   =    -.136                                                            
   RMAX   =    3.182    core radius for proj-oper                               
   RAUG   =    1.300    factor for augmentation sphere                          
   RDEP   =    2.025    radius for radial grids                                 
   QCUT   =   -3.929; QGAM   =    7.858    optimization parameters              
                                                                                
   Description                                                                  
     l     E      TYP  RCUT    TYP  RCUT                                        
     0   .000     23  2.000                                                     
     0  2.000     23  2.000                                                     
     1   .000     23  2.000                                                     
     1  2.000     23  2.000                                                     
     2   .000     23  2.000                                                     
  local pseudopotential read in
  partial core-charges read in
  atomic valenz-charges read in
  non local Contribution for L=           0  read in
    real space projection operators read in
  non local Contribution for L=           0  read in
    real space projection operators read in
  non local Contribution for L=           1  read in
    real space projection operators read in
  non local Contribution for L=           1  read in
    real space projection operators read in
    PAW grid and wavefunctions read in
 
   number of l-projection  operators is LMAX  =           4
   number of lm-projection operators is LMMAX =           8
 
 POTCAR:   PAW_PBE Al 04Jan2001                   
   VRHFIN =Al: s2p1                                                             
   LEXCH  = PE                                                                  
   EATOM  =    53.5387 eV,    3.9350 Ry                                         
                                                                                
   TITEL  = PAW_PBE Al 04Jan2001                                                
   LULTRA =        F    use ultrasoft PP ?                                      
   IUNSCR =        1    unscreen: 0-lin 1-nonlin 2-no                           
   RPACOR =    1.500    partial core radius                                     
   POMASS =   26.982; ZVAL   =    3.000    mass and valenz                      
   RCORE  =    1.900    outmost cutoff radius                                   
   RWIGS  =    2.650; RWIGS  =    1.402    wigner-seitz radius (au A)           
   ENMAX  =  240.300; ENMIN  =  180.225 eV                                      
   ICORE  =        2    local potential                                         
   LCOR   =        T    correct aug charges                                     
   LPAW   =        T    paw PP                                                  
   EAUG   =  291.052                                                            
   DEXC   =    -.041                                                            
   RMAX   =    2.974    core radius for proj-oper                               
   RAUG   =    1.300    factor for augmentation sphere                          
   RDEP   =    1.966    radius for radial grids                                 
   QCUT   =   -4.203; QGAM   =    8.405    optimization parameters              
                                                                                
   Description                                                                  
     l     E      TYP  RCUT    TYP  RCUT                                        
     0   .000     23  1.900                                                     
     0   .000     23  1.900                                                     
     1   .000     23  1.900                                                     
     1  1.000     23  1.900                                                     
     2   .000      7  1.900                                                     
  local pseudopotential read in
  partial core-charges read in
  atomic valenz-charges read in
  non local Contribution for L=           0  read in
    real space projection operators read in
  non local Contribution for L=           0  read in
    real space projection operators read in
  non local Contribution for L=           1  read in
    real space projection operators read in
  non local Contribution for L=           1  read in
    real space projection operators read in
    PAW grid and wavefunctions read in
 
   number of l-projection  operators is LMAX  =           4
   number of lm-projection operators is LMMAX =           8
 

 ----------------------------------------------------------------------------- 
|                                                                             |
|  ADVICE TO THIS USER RUNNING 'VASP/VAMP'   (HEAR YOUR MASTER'S VOICE ...):  |
|                                                                             |
|      You have a (more or less) 'large supercell' and for larger cells       |
|      it might be more efficient to use real space projection operators      |
|      So try LREAL= Auto  in the INCAR   file.                               |
|      Mind: If you want to do a very accurate calculations keep the          |
|      reciprocal projection scheme          (i.e. LREAL=.FALSE.)             |
|                                                                             |
 ----------------------------------------------------------------------------- 

 PAW_PBE Mg 05Jan2001                   :
 energy of atom  1       EATOM=  -23.0029
 kinetic energy error for atom=    0.0002 (will be added to EATOM!!)
 PAW_PBE Al 04Jan2001                   :
 energy of atom  2       EATOM=  -53.5387
 kinetic energy error for atom=    0.0011 (will be added to EATOM!!)
 
 
 POSCAR: Mg1 Al30                                
  positions in direct lattice
  velocities in cartesian coordinates
 exchange correlation table for  LEXCH =        8
   RHO(1)=    0.500       N(1)  =     2000
   RHO(2)=  100.500       N(2)  =     4000

 VTST: version 2.03d, (02/18/09)

 CHAIN: initializing optimizer
 
 OPT: Using VASP Conjugate-Gradient optimizer
 CHAIN: Read ICHAIN            0
 


--------------------------------------------------------------------------------------------------------


 ion  position               nearest neighbor table
   1  0.494  0.500  0.494-  23 3.00  30 3.00  24 3.00  31 3.00  14 3.00  26 3.00  19 3.02  27 3.02
                             9 3.02  16 3.02  29 3.04
   2  0.998  0.000  0.998-  22 2.77  15 2.78  20 2.78   8 2.78  28 2.78   5 2.80   4 2.80  11 2.80
                            12 2.80  18 2.81   7 2.81   3 2.86
   3  0.248  0.000  0.248-  19 2.80  27 2.80   9 2.80  16 2.80  12 2.84   5 2.84   4 2.84  11 2.84
                             2 2.86  21 2.88  17 2.90   6 2.90
   4  0.245  0.242  0.995-  18 2.76  20 2.79   2 2.80  26 2.81  24 2.82   3 2.84   5 2.86   6 2.87
                             9 2.91  10 2.91  13 2.99
   5  0.995  0.242  0.245-   7 2.76   8 2.79   2 2.80  14 2.81  23 2.82   3 2.84   4 2.86  17 2.87
                            19 2.91  10 2.91  25 2.99
   6  0.503  0.000  0.996-   9 2.70  16 2.70  24 2.72  31 2.72  22 2.82   8 2.83  15 2.83  18 2.85
                             4 2.87  11 2.87   7 2.87   3 2.90
   7  0.755  0.000  0.246-   9 2.72  16 2.72  12 2.76   5 2.76   2 2.81  15 2.82   8 2.82  23 2.83
                            30 2.83  17 2.85   6 2.87  21 2.91
   8  0.755  0.243  0.997-  20 2.77  22 2.77   2 2.78   5 2.79   9 2.79  24 2.81   7 2.82  29 2.83
                             6 2.83  14 2.83  10 2.84  13 2.86
   9  0.508  0.229  0.239-   6 2.70   7 2.72   8 2.79   3 2.80  21 2.81   4 2.91  23 2.94  13 2.96
                            14 3.00   1 3.02  19 3.08
  10  0.994  0.500  0.994-  29 2.67  26 2.71  14 2.71  20 2.84   8 2.84  28 2.84  15 2.84  11 2.91
                            12 2.91   5 2.91   4 2.91
  11  0.245  0.758  0.995-  18 2.76  28 2.79   2 2.80  26 2.81  31 2.82   3 2.84  12 2.86   6 2.87
                            16 2.91  10 2.91  13 2.99
  12  0.995  0.758  0.245-   7 2.76  15 2.79   2 2.80  14 2.81  30 2.82   3 2.84  11 2.86  17 2.87
                            27 2.91  10 2.91  25 2.99
  13  0.511  0.500  0.994-  29 2.76  14 2.82  24 2.83  31 2.83  15 2.86   8 2.86  26 2.91   9 2.96
                            16 2.96  11 2.99   4 2.99
  14  0.761  0.500  0.236-  10 2.71   5 2.81  12 2.81  13 2.82   8 2.83  15 2.83  25 2.91  16 3.00
                             9 3.00   1 3.00  23 3.01  30 3.01
  15  0.755  0.757  0.997-  28 2.77  22 2.77   2 2.78  12 2.79  16 2.79  31 2.81   7 2.82  29 2.83
                             6 2.83  14 2.83  10 2.84  13 2.86
  16  0.508  0.771  0.239-   6 2.70   7 2.72  15 2.79   3 2.80  21 2.81  11 2.91  30 2.94  13 2.96
                            14 3.00   1 3.02  27 3.08
  17  0.996  0.000  0.503-  19 2.70  27 2.70  23 2.72  30 2.72  22 2.82  28 2.83  20 2.83   7 2.85
                            12 2.87   5 2.87  18 2.87   3 2.90
  18  0.246  0.000  0.755-  19 2.72  27 2.72   4 2.76  11 2.76   2 2.81  20 2.82  28 2.82  24 2.83
                            31 2.83   6 2.85  17 2.87  21 2.91
  19  0.239  0.229  0.508-  17 2.70  18 2.72  20 2.79   3 2.80  21 2.81   5 2.91  24 2.94  25 2.96
                            26 3.00   1 3.02   9 3.08
  20  0.997  0.243  0.755-   8 2.77  22 2.77   2 2.78   4 2.79  19 2.79  23 2.81  18 2.82  29 2.83
                            17 2.83  26 2.83  10 2.84  25 2.86
  21  0.500  0.000  0.500-   9 2.81  16 2.81  19 2.81  27 2.81  24 2.86  23 2.86  30 2.86  31 2.86
                             3 2.88   7 2.91  18 2.91  22 2.93
  22  0.756  0.000  0.756-   2 2.77   8 2.77  15 2.77  20 2.77  28 2.77   6 2.82  17 2.82  24 2.82
                            31 2.82  30 2.82  23 2.82  21 2.93
  23  0.759  0.240  0.502-  17 2.72  20 2.81   5 2.82  22 2.82   7 2.83  25 2.83  21 2.86   9 2.94
                            24 2.94  29 2.96   1 3.00  14 3.01
  24  0.502  0.240  0.759-   6 2.72   8 2.81   4 2.82  22 2.82  18 2.83  13 2.83  21 2.86  19 2.94
                            23 2.94  29 2.96   1 3.00  26 3.01
  25  0.994  0.500  0.511-  29 2.76  26 2.82  23 2.83  30 2.83  20 2.86  28 2.86  14 2.91  27 2.96
                            19 2.96  12 2.99   5 2.99
  26  0.236  0.500  0.761-  10 2.71   4 2.81  11 2.81  25 2.82  20 2.83  28 2.83  13 2.91  27 3.00
                            19 3.00   1 3.00  24 3.01  31 3.01
  27  0.239  0.771  0.508-  17 2.70  18 2.72  28 2.79   3 2.80  21 2.81  12 2.91  31 2.94  25 2.96
                            26 3.00   1 3.02  16 3.08
  28  0.997  0.757  0.755-  15 2.77  22 2.77   2 2.78  11 2.79  27 2.79  30 2.81  18 2.82  29 2.83
                            17 2.83  26 2.83  10 2.84  25 2.86
  29  0.760  0.500  0.760-  10 2.67  13 2.76  25 2.76  15 2.83  20 2.83   8 2.83  28 2.83  23 2.96
                            24 2.96  30 2.96  31 2.96   1 3.04
  30  0.759  0.760  0.502-  17 2.72  28 2.81  12 2.82  22 2.82   7 2.83  25 2.83  21 2.86  16 2.94
                            31 2.94  29 2.96   1 3.00  14 3.01
  31  0.502  0.760  0.759-   6 2.72  15 2.81  11 2.82  22 2.82  18 2.83  13 2.83  21 2.86  27 2.94
                            30 2.94  29 2.96   1 3.00  26 3.01
 
  LATTYP: Found a simple cubic cell.
 ALAT       =     8.0870540000
  
  Lattice vectors:
  
 A1 = (   8.0870540000,   0.0000000000,   0.0000000000)
 A2 = (   0.0000000000,   8.0870540000,   0.0000000000)
 A3 = (   0.0000000000,   0.0000000000,   8.0870540000)
 Subroutine PRICEL returns:
 Original cell was already a primitive cell.
 

Analysis of symmetry for initial positions (statically):

 Routine SETGRP: Setting up the symmetry group for a 
 simple cubic supercell.


 Subroutine GETGRP returns: Found  4 space group operations
 (whereof  4 operations were pure point group operations)
 out of a pool of 48 trial point group operations.


The static configuration has the point symmetry C_2v.

Analysis of symmetry for dynamics (positions and initial velocities):

 Subroutine DYNSYM returns: Found  4 space group operations
 (whereof  4 operations were pure point group operations)
 out of a pool of  4 trial space group operations
 (whereof  4 operations were pure point group operations)
 and found also     1 'primitive' translations


The dynamic configuration has the point symmetry C_2v.
 
 
 KPOINTS: Automatic kpoint scheme                 

Automatic generation of k-mesh.
 
 Subroutine IBZKPT returns following result:
 ===========================================
 
 Found      2 irreducible k-points:
 
 Following reciprocal coordinates:
            Coordinates               Weight
  0.250000  0.250000  0.250000      4.000000
 -0.250000  0.250000  0.250000      4.000000
 
 Following cartesian coordinates:
            Coordinates               Weight
  0.030914  0.030914  0.030914      4.000000
 -0.030914  0.030914  0.030914      4.000000
 


--------------------------------------------------------------------------------------------------------




 Dimension of arrays:
   k-points           NKPTS =      2   k-points in BZ     NKDIM =      2   number of bands    NBANDS=     62
   number of dos      NEDOS =    301   number of ions     NIONS =     31
   non local maximal  LDIM  =      4   non local SUM 2l+1 LMDIM =      8
   total plane-waves  NPLWV = 110592
   max r-space proj   IRMAX =      1   max aug-charges    IRDMAX=   9081
   dimension x,y,z NGX =    48 NGY =   48 NGZ =   48
   dimension x,y,z NGXF=    96 NGYF=   96 NGZF=   96
   support grid    NGXF=    96 NGYF=   96 NGZF=   96
   ions per type =               1  30
 NGX,Y,Z   is equivalent  to a cutoff of   9.87,  9.87,  9.87 a.u.
 NGXF,Y,Z  is equivalent  to a cutoff of  19.73, 19.73, 19.73 a.u.


 I would recommend the setting:
   dimension x,y,z NGX =    46 NGY =   46 NGZ =   46
 SYSTEM =  unknown system                          
 POSCAR =  Mg1 Al30                                

 Startparameter for this run:
   NWRITE =      2    write-flag & timer
   PREC   = accura    medium, high low
   ISTART =      0    job   : 0-new  1-cont  2-samecut
   ICHARG =      2    charge: 1-file 2-atom 10-const
   ISPIN  =      1    spin polarized calculation?
   LNONCOLLINEAR =      F non collinear calculations
   LSORBIT =      F    spin-orbit coupling
   INIWAV =      1    electr: 0-lowe 1-rand  2-diag
   LASPH  =      F    aspherical Exc in radial PAW
   METAGGA=      F    non-selfconsistent MetaGGA calc.

 Electronic Relaxation 1
   ENCUT  =  300.0 eV  22.05 Ry    4.70 a.u.  11.42 11.42 11.42*2*pi/ulx,y,z
   ENINI  =  300.0     initial cutoff
   ENAUG  =  291.1 eV  augmentation charge cutoff
   NELM   =     60;   NELMIN=  2; NELMDL=-12     # of ELM steps 
   EDIFF  = 0.1E-03   stopping-criterion for ELM
   LREAL  =      F    real-space projection
   LCOMPAT=      F    compatible to vasp.4.4
   LREAL_COMPAT= F    compatible to vasp.4.5.1-3
   GGA_COMPAT  = T    GGA compatible to vasp.4.4-vasp.4.6
   LMAXPAW     = -100 max onsite density
   LMAXMIX     =    2 max onsite mixed and CHGCAR
   VOSKOWN=      0    Vosko Wilk Nusair interpolation
   ROPT   =    0.00000   0.00000
 Ionic relaxation
   EDIFFG = 0.5E-01   stopping-criterion for IOM
   NSW    =    191    number of steps for IOM
   NBLOCK =      1;   KBLOCK =    191    inner block; outer block 
   IBRION =      2    ionic relax: 0-MD 1-quasi-New 2-CG
   NFREE  =      1    steps in history (QN), initial steepest desc. (CG)
   ISIF   =      2    stress and relaxation
   IWAVPR =     11    prediction:  0-non 1-charg 2-wave 3-comb
   ISYM   =      2    0-nonsym 1-usesym 2-fastsym
   LCORR  =      T    Harris-Foulkes like correction to forces

   POTIM  = 0.5000    time-step for ionic-motion
   TEIN   =    0.0    initial temperature
   TEBEG  =    0.0;   TEEND  =   0.0 temperature during run
   SMASS  =  -3.00    Nose mass-parameter (am)
   estimated Nose-frequenzy (Omega)   =  0.10E-29 period in steps =****** mass=  -0.149E-26a.u.
   NPACO  =    256;   APACO  = 16.0  distance and # of slots for P.C.
   PSTRESS=    0.0 pullay stress

  Mass of Ions in am
   POMASS =  24.30 26.98
  Ionic Valenz
   ZVAL   =   2.00  3.00
  Atomic Wigner-Seitz radii
   RWIGS  =  -1.00 -1.00
   NELECT =      92.0000    total number of electrons
   NUPDOWN=      -1.0000    fix difference up-down

 DOS related values:
   EMIN   =  10.00;   EMAX   =-10.00  energy-range for DOS
   EFERMI =   0.00
   ISMEAR =     1;   SIGMA  =   0.20  broadening in eV -4-tet -1-fermi 0-gaus

 Electronic relaxation 2 (details)
   IALGO  =     48    algorithm
   LDIAG  =      T    sub-space diagonalisation
   IMIX   =      4    mixing-type and parameters
     AMIX     =   0.40;   BMIX     =  1.00
     AMIX_MAG =   1.60;   BMIX_MAG =  1.00
     AMIN     =   0.10
     WC   =   100.;   INIMIX=   1;  MIXPRE=   1

 Intra band minimization:
   WEIMIN = 0.0010     energy-eigenvalue tresh-hold
   EBREAK =  0.40E-06  absolut break condition
   DEPER  =   0.30     relativ break condition  

   TIME   =   0.40     timestep for ELM

  volume/ion in A,a.u.               =      17.06       115.13
  Fermi-wavevector in a.u.,A,eV,Ry     =   0.913862  1.726948 11.362811  0.835143
  Thomas-Fermi vector in A             =   2.038422
 
 Write flags
   LWAVE  =      F    write WAVECAR
   LCHARG =      F    write CHGCAR
   LVTOT  =      F    write LOCPOT, local potential
   LELF   =      F    write electronic localiz. function (ELF)
   LORBIT =      0    0 simple, 1 ext, 2 COOP (PROOUT)


 Dipole corrections
   LMONO  =      F    monopole corrections only (constant potential shift)
   LDIPOL =      F    correct potential (dipole corrections)
   IDIPOL =      0    1-x, 2-y, 3-z, 4-all directions 
   EPSILON=  1.0000000 bulk dielectric constant

 Exchange correlation treatment:
   GGA     =    --    GGA type
   LEXCH   =     8    internal setting for exchange type
   VOSKOWN=      0    Vosko Wilk Nusair interpolation
   LHFCALC =     F    Hartree Fock is set to
   LHFONE  =     F    Hartree Fock one center treatment
   AEXX    =    0.0000 exact exchange contribution

 Linear response parameters
   LEPSILON=     F    determine dielectric tensor
   LRPA    =     F    only Hartree local field effects (RPA)
   LNABLA  =     F    use nabla operator in PAW spheres
   LVEL    =     F    velocity operator in full k-point grid
   LINTERFAST=   F  fast interpolation
   KINTER  =     0    interpolate to denser k-point grid
   CSHIFT  =0.1000    complex shift for real part using Kramers Kronig
   OMEGAMAX=  -1.0    maximum frequency

 Orbital magnetization related:
   ORBITALMAG=     F  switch on orbital magnetization
   LCHIMAG   =     F  perturbation theory with respect to B field



--------------------------------------------------------------------------------------------------------


 conjugate gradient relaxation of ions
 charge density and potential will be updated during run
 non-spin polarized calculation
 RMM-DIIS sequential band-by-band
 perform sub-space diagonalisation
    before iterative eigenvector-optimisation
 modified Broyden-mixing scheme, WC =      100.0
 initial mixing is a Kerker type mixing with AMIX =  0.4000 and BMIX =      1.0000
 Hartree-type preconditioning will be used
 using additional bands           16
 reciprocal scheme for non local part
 use partial core corrections
 calculate Harris-corrections to forces 
   (improved forces if not selfconsistent)
 use gradient corrections 
 use of overlap-Matrix (Vanderbilt PP)
 Methfessel and Paxton  Order N= 1 SIGMA  =   0.20


--------------------------------------------------------------------------------------------------------


  energy-cutoff  :      300.00
  volume of cell :      528.90
      direct lattice vectors                 reciprocal lattice vectors
     8.087054000  0.000000000  0.000000000     0.123654423  0.000000000  0.000000000
     0.000000000  8.087054000  0.000000000     0.000000000  0.123654423  0.000000000
     0.000000000  0.000000000  8.087054000     0.000000000  0.000000000  0.123654423

  length of vectors
     8.087054000  8.087054000  8.087054000     0.123654423  0.123654423  0.123654423


 
 k-points in units of 2pi/SCALE and weight: Automatic kpoint scheme                 
   0.03091361  0.03091361  0.03091361       0.500
  -0.03091361  0.03091361  0.03091361       0.500
 
 k-points in reciprocal lattice and weights: Automatic kpoint scheme                 
   0.25000000  0.25000000  0.25000000       0.500
  -0.25000000  0.25000000  0.25000000       0.500
 
 position of ions in fractional coordinates (direct lattice) 
   0.49416000  0.50000000  0.49416000
   0.99784300  0.00000000  0.99784300
   0.24811800  0.00000000  0.24811800
   0.24471300  0.24241700  0.99475300
   0.99475300  0.24241700  0.24471300
   0.50329400  0.00000000  0.99563800
   0.75522500  0.00000000  0.24613500
   0.75470200  0.24348000  0.99730800
   0.50817900  0.22862000  0.23879800
   0.99382800  0.50000000  0.99382800
   0.24471300  0.75758300  0.99475300
   0.99475300  0.75758300  0.24471300
   0.51079800  0.50000000  0.99374200
   0.76143400  0.50000000  0.23602500
   0.75470200  0.75652000  0.99730800
   0.50817900  0.77138000  0.23879800
   0.99563800  0.00000000  0.50329400
   0.24613500  0.00000000  0.75522500
   0.23879800  0.22862000  0.50817900
   0.99730800  0.24348000  0.75470200
   0.49961700  0.00000000  0.49961700
   0.75553400  0.00000000  0.75553400
   0.75909700  0.23978600  0.50174300
   0.50174300  0.23978600  0.75909700
   0.99374200  0.50000000  0.51079800
   0.23602500  0.50000000  0.76143400
   0.23879800  0.77138000  0.50817900
   0.99730800  0.75652000  0.75470200
   0.76002400  0.50000000  0.76002400
   0.75909700  0.76021400  0.50174300
   0.50174300  0.76021400  0.75909700
 
 position of ions in cartesian coordinates  (Angst):
   3.99629860  4.04352700  3.99629860
   8.06961022  0.00000000  8.06961022
   2.00654366  0.00000000  2.00654366
   1.97900725  1.96043937  8.04462123
   8.04462123  1.96043937  1.97900725
   4.07016576  0.00000000  8.05177827
   6.10754536  0.00000000  1.99050704
   6.10331583  1.96903591  8.06528365
   4.10967101  1.84886229  1.93117232
   8.03714070  4.04352700  8.03714070
   1.97900725  6.12661463  8.04462123
   8.04462123  6.12661463  1.97900725
   4.13085101  4.04352700  8.03644522
   6.15775788  4.04352700  1.90874692
   6.10331583  6.11801809  8.06528365
   4.10967101  6.23819171  1.93117232
   8.05177827  0.00000000  4.07016576
   1.99050704  0.00000000  6.10754536
   1.93117232  1.84886229  4.10967101
   8.06528365  1.96903591  6.10331583
   4.04042966  0.00000000  4.04042966
   6.11004426  0.00000000  6.11004426
   6.13885843  1.93916233  4.05762274
   4.05762274  1.93916233  6.13885843
   8.03644522  4.04352700  4.13085101
   1.90874692  4.04352700  6.15775788
   1.93117232  6.23819171  4.10967101
   8.06528365  6.11801809  6.10331583
   6.14635513  4.04352700  6.14635513
   6.13885843  6.14789167  4.05762274
   4.05762274  6.14789167  6.13885843
 


--------------------------------------------------------------------------------------------------------


 k-point  1 :  0.25000.25000.2500  plane waves:    6238
 k-point  2 :  -.25000.25000.2500  plane waves:    6238

 maximum and minimum number of plane-waves per node :    6238   6238

 maximum number of plane-waves:    6238
 maximal index in each direction: 
   IXMAX= 11   IYMAX= 11   IZMAX= 11
   IXMIN=-11   IYMIN=-11   IZMIN=-11

 NGX is ok and might be reduce to  46
 NGY is ok and might be reduce to  46
 NGZ is ok and might be reduce to  46

 serial   3D FFT for wavefunctions
 parallel 3D FFT for charge:
    minimum data exchange during FFTs selected (reduces bandwidth)


 total amount of memory used by VASP on root node 133132. kBytes
========================================================================

   base      :    30000. kBytes
   nonl-proj :     4690. kBytes
   fftplans  :    30736. kBytes
   grid      :    54743. kBytes
   one-center:       95. kBytes
   wavefun   :    12868. kBytes
 
 Broyden mixing: mesh for mixing (old mesh)
   NGX = 23   NGY = 23   NGZ = 23
  (NGX  = 96   NGY  = 96   NGZ  = 96)
  gives a total of  12167 points

 initial charge density was supplied:
 charge density of overlapping atoms calculated
 number of electron   92.0000000 magnetization 
 keeping initial charge density in first step


--------------------------------------------------------------------------------------------------------


 Maximum index for augmentation-charges         8604 (set IRDMAX)


--------------------------------------------------------------------------------------------------------


 First call to EWALD:  gamma=   0.219
 Maximum number of real-space cells 3x 3x 3
 Maximum number of reciprocal cells 3x 3x 3

    FEWALD:  cpu time    0.07: real time    0.02
   RESPFUN:  cpu time    0.01: real time    0.01


----------------------------------------- Iteration    1(   1)  ---------------------------------------


    POTLOK:  cpu time    1.92: real time    1.89
    SETDIJ:  cpu time    0.15: real time    0.15
    EDDIAG:  cpu time    4.03: real time    3.00
  RMM-DIIS:  cpu time   20.72: real time    6.99
    ORTHCH:  cpu time    0.34: real time    0.08
       DOS:  cpu time    0.00: real time    0.00
    --------------------------------------------
      LOOP:  cpu time   27.16: real time   12.11

 eigenvalue-minimisations  :   124
 total energy-change (2. order) : 0.2994868E+03  (-0.1697371E+04)
 number of electron   92.0000000 magnetization 
 augmentation part    92.0000000 magnetization 

 Free energy of the ion-electron system (eV)
  ---------------------------------------------------
  alpha Z        PSCENC =        -7.38312591
  Ewald energy   TEWEN  =     -2141.91741887
  -1/2 Hartree   DENC   =       -54.31028159
  -exchange  EXHF       =         0.00000000
  -V(xc)+E(xc)   XCENC  =      -795.81339864
  PAW double counting   =      1078.21717227     -108.50372521
  entropy T*S    EENTRO =        -0.06721703
  eigenvalues    EBANDS =       700.13333754
  atomic energy  EATOM  =      1629.13144109
  ---------------------------------------------------
  free energy    TOTEN  =       299.48678365 eV

  energy without entropy =      299.55400068  energy(sigma->0) =      299.50918932


--------------------------------------------------------------------------------------------------------




----------------------------------------- Iteration    1(   2)  ---------------------------------------


    EDDIAG:  cpu time    4.12: real time    3.00
  RMM-DIIS:  cpu time   20.72: real time    6.98
    ORTHCH:  cpu time    0.34: real time    0.08
       DOS:  cpu time    0.00: real time    0.00
    --------------------------------------------
      LOOP:  cpu time   25.18: real time   10.06

 eigenvalue-minimisations  :   124
 total energy-change (2. order) :-0.3131570E+03  (-0.3089646E+03)
 number of electron   92.0000000 magnetization 
 augmentation part    92.0000000 magnetization 

 Free energy of the ion-electron system (eV)
  ---------------------------------------------------
  alpha Z        PSCENC =        -7.38312591
  Ewald energy   TEWEN  =     -2141.91741887
  -1/2 Hartree   DENC   =       -54.31028159
  -exchange  EXHF       =         0.00000000
  -V(xc)+E(xc)   XCENC  =      -795.81339864
  PAW double counting   =      1078.21717227     -108.50372521
  entropy T*S    EENTRO =        -0.05697340
  eigenvalues    EBANDS =       386.96612037
  atomic energy  EATOM  =      1629.13144109
  ---------------------------------------------------
  free energy    TOTEN  =       -13.67018990 eV

  energy without entropy =      -13.61321650  energy(sigma->0) =      -13.65119876


--------------------------------------------------------------------------------------------------------




----------------------------------------- Iteration    1(   3)  ---------------------------------------


    EDDIAG:  cpu time    4.11: real time    3.00
  RMM-DIIS:  cpu time   20.73: real time    7.00
    ORTHCH:  cpu time    0.34: real time    0.08
       DOS:  cpu time    0.00: real time    0.00
    --------------------------------------------
      LOOP:  cpu time   25.19: real time   10.08

 eigenvalue-minimisations  :   124
 total energy-change (2. order) :-0.7157718E+02  (-0.7477810E+02)
 number of electron   92.0000000 magnetization 
 augmentation part    92.0000000 magnetization 

 Free energy of the ion-electron system (eV)
  ---------------------------------------------------
  alpha Z        PSCENC =        -7.38312591
  Ewald energy   TEWEN  =     -2141.91741887
  -1/2 Hartree   DENC   =       -54.31028159
  -exchange  EXHF       =         0.00000000
  -V(xc)+E(xc)   XCENC  =      -795.81339864
  PAW double counting   =      1078.21717227     -108.50372521
  entropy T*S    EENTRO =         0.00044262
  eigenvalues    EBANDS =       315.33152633
  atomic energy  EATOM  =      1629.13144109
  ---------------------------------------------------
  free energy    TOTEN  =       -85.24736791 eV

  energy without entropy =      -85.24781053  energy(sigma->0) =      -85.24751545


--------------------------------------------------------------------------------------------------------




----------------------------------------- Iteration    1(   4)  ---------------------------------------


    EDDIAG:  cpu time    4.12: real time    2.99
  RMM-DIIS:  cpu time   20.72: real time    6.98
    ORTHCH:  cpu time    0.33: real time    0.08
       DOS:  cpu time    0.01: real time    0.00
    --------------------------------------------
      LOOP:  cpu time   25.19: real time   10.06

 eigenvalue-minimisations  :   124
 total energy-change (2. order) :-0.1696663E+02  (-0.1724346E+02)
 number of electron   92.0000000 magnetization 
 augmentation part    92.0000000 magnetization 

 Free energy of the ion-electron system (eV)
  ---------------------------------------------------
  alpha Z        PSCENC =        -7.38312591
  Ewald energy   TEWEN  =     -2141.91741887
  -1/2 Hartree   DENC   =       -54.31028159
  -exchange  EXHF       =         0.00000000
  -V(xc)+E(xc)   XCENC  =      -795.81339864
  PAW double counting   =      1078.21717227     -108.50372521
  entropy T*S    EENTRO =        -0.06214291
  eigenvalues    EBANDS =       298.42748594
  atomic energy  EATOM  =      1629.13144109
  ---------------------------------------------------
  free energy    TOTEN  =      -102.21399383 eV

  energy without entropy =     -102.15185092  energy(sigma->0) =     -102.19327953


--------------------------------------------------------------------------------------------------------




----------------------------------------- Iteration    1(   5)  ---------------------------------------


    EDDIAG:  cpu time    4.04: real time    3.00
  RMM-DIIS:  cpu time   20.72: real time    6.98
    ORTHCH:  cpu time    0.33: real time    0.08
       DOS:  cpu time    0.01: real time    0.00
    --------------------------------------------
      LOOP:  cpu time   25.20: real time   10.14

 eigenvalue-minimisations  :   124
 total energy-change (2. order) :-0.6579612E+01  (-0.5580383E+01)
 number of electron   92.0000000 magnetization 
 augmentation part    92.0000000 magnetization 

 Free energy of the ion-electron system (eV)
  ---------------------------------------------------
  alpha Z        PSCENC =        -7.38312591
  Ewald energy   TEWEN  =     -2141.91741887
  -1/2 Hartree   DENC   =       -54.31028159
  -exchange  EXHF       =         0.00000000
  -V(xc)+E(xc)   XCENC  =      -795.81339864
  PAW double counting   =      1078.21717227     -108.50372521
  entropy T*S    EENTRO =        -0.04033210
  eigenvalues    EBANDS =       291.82606271
  atomic energy  EATOM  =      1629.13144109
  ---------------------------------------------------
  free energy    TOTEN  =      -108.79360625 eV

  energy without entropy =     -108.75327415  energy(sigma->0) =     -108.78016222


--------------------------------------------------------------------------------------------------------




----------------------------------------- Iteration    1(   6)  ---------------------------------------


    EDDIAG:  cpu time    4.11: real time    3.00
  RMM-DIIS:  cpu time   20.75: real time    7.00
    ORTHCH:  cpu time    0.34: real time    0.08
       DOS:  cpu time    0.00: real time    0.00
    --------------------------------------------
      LOOP:  cpu time   25.21: real time   10.08

 eigenvalue-minimisations  :   124
 total energy-change (2. order) :-0.2551920E+01  (-0.2117502E+01)
 number of electron   92.0000000 magnetization 
 augmentation part    92.0000000 magnetization 

 Free energy of the ion-electron system (eV)
  ---------------------------------------------------
  alpha Z        PSCENC =        -7.38312591
  Ewald energy   TEWEN  =     -2141.91741887
  -1/2 Hartree   DENC   =       -54.31028159
  -exchange  EXHF       =         0.00000000
  -V(xc)+E(xc)   XCENC  =      -795.81339864
  PAW double counting   =      1078.21717227     -108.50372521
  entropy T*S    EENTRO =        -0.04362347
  eigenvalues    EBANDS =       289.27743372
  atomic energy  EATOM  =      1629.13144109
  ---------------------------------------------------
  free energy    TOTEN  =      -111.34552661 eV

  energy without entropy =     -111.30190314  energy(sigma->0) =     -111.33098546


--------------------------------------------------------------------------------------------------------




----------------------------------------- Iteration    1(   7)  ---------------------------------------


    EDDIAG:  cpu time    4.11: real time    2.99
  RMM-DIIS:  cpu time   20.71: real time    6.98
    ORTHCH:  cpu time    0.34: real time    0.08
       DOS:  cpu time    0.00: real time    0.00
    --------------------------------------------
      LOOP:  cpu time   25.17: real time   10.06

 eigenvalue-minimisations  :   124
 total energy-change (2. order) :-0.1084716E+01  (-0.9026173E+00)
 number of electron   92.0000000 magnetization 
 augmentation part    92.0000000 magnetization 

 Free energy of the ion-electron system (eV)
  ---------------------------------------------------
  alpha Z        PSCENC =        -7.38312591
  Ewald energy   TEWEN  =     -2141.91741887
  -1/2 Hartree   DENC   =       -54.31028159
  -exchange  EXHF       =         0.00000000
  -V(xc)+E(xc)   XCENC  =      -795.81339864
  PAW double counting   =      1078.21717227     -108.50372521
  entropy T*S    EENTRO =        -0.08505023
  eigenvalues    EBANDS =       288.23414423
  atomic energy  EATOM  =      1629.13144109
  ---------------------------------------------------
  free energy    TOTEN  =      -112.43024286 eV

  energy without entropy =     -112.34519263  energy(sigma->0) =     -112.40189278


--------------------------------------------------------------------------------------------------------




----------------------------------------- Iteration    1(   8)  ---------------------------------------


    EDDIAG:  cpu time    4.10: real time    3.02
  RMM-DIIS:  cpu time   21.03: real time    7.01
    ORTHCH:  cpu time    0.33: real time    0.08
       DOS:  cpu time    0.01: real time    0.00
    --------------------------------------------
      LOOP:  cpu time   25.57: real time   10.15

 eigenvalue-minimisations  :   124
 total energy-change (2. order) :-0.5135423E+00  (-0.4330407E+00)
 number of electron   92.0000000 magnetization 
 augmentation part    92.0000000 magnetization 

 Free energy of the ion-electron system (eV)
  ---------------------------------------------------
  alpha Z        PSCENC =        -7.38312591
  Ewald energy   TEWEN  =     -2141.91741887
  -1/2 Hartree   DENC   =       -54.31028159
  -exchange  EXHF       =         0.00000000
  -V(xc)+E(xc)   XCENC  =      -795.81339864
  PAW double counting   =      1078.21717227     -108.50372521
  entropy T*S    EENTRO =        -0.08673323
  eigenvalues    EBANDS =       287.72228498
  atomic energy  EATOM  =      1629.13144109
  ---------------------------------------------------
  free energy    TOTEN  =      -112.94378511 eV

  energy without entropy =     -112.85705188  energy(sigma->0) =     -112.91487404


--------------------------------------------------------------------------------------------------------




----------------------------------------- Iteration    1(   9)  ---------------------------------------


    EDDIAG:  cpu time    4.10: real time    2.96
  RMM-DIIS:  cpu time   51.40: real time   14.87
    ORTHCH:  cpu time    0.33: real time    0.08
       DOS:  cpu time    0.01: real time    0.00
    --------------------------------------------
      LOOP:  cpu time   55.84: real time   17.91

 eigenvalue-minimisations  :   300
 total energy-change (2. order) :-0.4808652E+00  (-0.4247199E+00)
 number of electron   92.0000000 magnetization 
 augmentation part    92.0000000 magnetization 

 Free energy of the ion-electron system (eV)
  ---------------------------------------------------
  alpha Z        PSCENC =        -7.38312591
  Ewald energy   TEWEN  =     -2141.91741887
  -1/2 Hartree   DENC   =       -54.31028159
  -exchange  EXHF       =         0.00000000
  -V(xc)+E(xc)   XCENC  =      -795.81339864
  PAW double counting   =      1078.21717227     -108.50372521
  entropy T*S    EENTRO =        -0.04008237
  eigenvalues    EBANDS =       287.19476894
  atomic energy  EATOM  =      1629.13144109
  ---------------------------------------------------
  free energy    TOTEN  =      -113.42465030 eV

  energy without entropy =     -113.38456793  energy(sigma->0) =     -113.41128951


--------------------------------------------------------------------------------------------------------




----------------------------------------- Iteration    1(  10)  ---------------------------------------


    EDDIAG:  cpu time    4.11: real time    3.00
  RMM-DIIS:  cpu time   47.31: real time   13.78
    ORTHCH:  cpu time    0.33: real time    0.08
       DOS:  cpu time    0.01: real time    0.00
    --------------------------------------------
      LOOP:  cpu time   51.77: real time   16.87

 eigenvalue-minimisations  :   279
 total energy-change (2. order) :-0.9253778E-01  (-0.4181739E-01)
 number of electron   92.0000000 magnetization 
 augmentation part    92.0000000 magnetization 

 Free energy of the ion-electron system (eV)
  ---------------------------------------------------
  alpha Z        PSCENC =        -7.38312591
  Ewald energy   TEWEN  =     -2141.91741887
  -1/2 Hartree   DENC   =       -54.31028159
  -exchange  EXHF       =         0.00000000
  -V(xc)+E(xc)   XCENC  =      -795.81339864
  PAW double counting   =      1078.21717227     -108.50372521
  entropy T*S    EENTRO =        -0.03866815
  eigenvalues    EBANDS =       287.10081693
  atomic energy  EATOM  =      1629.13144109
  ---------------------------------------------------
  free energy    TOTEN  =      -113.51718808 eV

  energy without entropy =     -113.47851993  energy(sigma->0) =     -113.50429870


--------------------------------------------------------------------------------------------------------




----------------------------------------- Iteration    1(  11)  ---------------------------------------


    EDDIAG:  cpu time    4.12: real time    2.99
  RMM-DIIS:  cpu time   39.45: real time   11.84
    ORTHCH:  cpu time    0.33: real time    0.08
       DOS:  cpu time    0.01: real time    0.00
    --------------------------------------------
      LOOP:  cpu time   43.91: real time   14.93

 eigenvalue-minimisations  :   233
 total energy-change (2. order) :-0.1204069E-01  (-0.2971987E-02)
 number of electron   92.0000000 magnetization 
 augmentation part    92.0000000 magnetization 

 Free energy of the ion-electron system (eV)
  ---------------------------------------------------
  alpha Z        PSCENC =        -7.38312591
  Ewald energy   TEWEN  =     -2141.91741887
  -1/2 Hartree   DENC   =       -54.31028159
  -exchange  EXHF       =         0.00000000
  -V(xc)+E(xc)   XCENC  =      -795.81339864
  PAW double counting   =      1078.21717227     -108.50372521
  entropy T*S    EENTRO =        -0.03730211
  eigenvalues    EBANDS =       287.08741020
  atomic energy  EATOM  =      1629.13144109
  ---------------------------------------------------
  free energy    TOTEN  =      -113.52922877 eV

  energy without entropy =     -113.49192666  energy(sigma->0) =     -113.51679474


--------------------------------------------------------------------------------------------------------




----------------------------------------- Iteration    1(  12)  ---------------------------------------


    EDDIAG:  cpu time    4.12: real time    3.00
  RMM-DIIS:  cpu time   30.45: real time    9.42
    ORTHCH:  cpu time    0.33: real time    0.08
       DOS:  cpu time    0.01: real time    0.00
    CHARGE:  cpu time    1.94: real time    1.84
    MIXING:  cpu time    0.06: real time    0.06
    --------------------------------------------
      LOOP:  cpu time   36.91: real time   14.41

 eigenvalue-minimisations  :   181
 total energy-change (2. order) :-0.2547687E-03  (-0.1159255E-03)
 number of electron   91.9999999 magnetization 
 augmentation part    -1.1009590 magnetization 

 Broyden mixing:
  rms(total) = 0.58778E+00    rms(broyden)= 0.58776E+00
  rms(prec ) = 0.13103E+01
  weight for this iteration     100.00

 Free energy of the ion-electron system (eV)
  ---------------------------------------------------
  alpha Z        PSCENC =        -7.38312591
  Ewald energy   TEWEN  =     -2141.91741887
  -1/2 Hartree   DENC   =       -54.31028159
  -exchange  EXHF       =         0.00000000
  -V(xc)+E(xc)   XCENC  =      -795.81339864
  PAW double counting   =      1078.21717227     -108.50372521
  entropy T*S    EENTRO =        -0.03729364
  eigenvalues    EBANDS =       287.08714696
  atomic energy  EATOM  =      1629.13144109
  ---------------------------------------------------
  free energy    TOTEN  =      -113.52948354 eV

  energy without entropy =     -113.49218990  energy(sigma->0) =     -113.51705233


--------------------------------------------------------------------------------------------------------




----------------------------------------- Iteration    1(  13)  ---------------------------------------


    POTLOK:  cpu time    1.74: real time    1.74
    SETDIJ:  cpu time    0.15: real time    0.15
    EDDIAG:  cpu time    4.11: real time    3.02
  RMM-DIIS:  cpu time   40.89: real time   12.43
    ORTHCH:  cpu time    0.34: real time    0.08
       DOS:  cpu time    0.01: real time    0.00
    CHARGE:  cpu time    1.93: real time    1.84
    MIXING:  cpu time    0.05: real time    0.05
    --------------------------------------------
      LOOP:  cpu time   49.23: real time   19.33

 eigenvalue-minimisations  :   248
 total energy-change (2. order) : 0.1479344E+01  (-0.4977973E+00)
 number of electron   91.9999999 magnetization 
 augmentation part    -1.1031668 magnetization 

 Broyden mixing:
  rms(total) = 0.33865E+00    rms(broyden)= 0.33865E+00
  rms(prec ) = 0.53718E+00
  weight for this iteration     100.00

 eigenvalues of (default mixing * dielectric matrix)
  average eigenvalue GAMMA=   1.7732
  1.7732

 Free energy of the ion-electron system (eV)
  ---------------------------------------------------
  alpha Z        PSCENC =        -7.38312591
  Ewald energy   TEWEN  =     -2141.91741887
  -1/2 Hartree   DENC   =       -60.13103262
  -exchange  EXHF       =         0.00000000
  -V(xc)+E(xc)   XCENC  =      -794.59823680
  PAW double counting   =      1081.37657128     -111.83060347
  entropy T*S    EENTRO =        -0.03011425
  eigenvalues    EBANDS =       293.33237970
  atomic energy  EATOM  =      1629.13144109
  ---------------------------------------------------
  free energy    TOTEN  =      -112.05013985 eV

  energy without entropy =     -112.02002560  energy(sigma->0) =     -112.04010177


--------------------------------------------------------------------------------------------------------




----------------------------------------- Iteration    1(  14)  ---------------------------------------


    POTLOK:  cpu time    1.74: real time    1.74
    SETDIJ:  cpu time    0.15: real time    0.15
    EDDIAG:  cpu time    4.10: real time    3.01
  RMM-DIIS:  cpu time   42.36: real time   12.82
    ORTHCH:  cpu time    0.33: real time    0.08
       DOS:  cpu time    0.01: real time    0.00
    CHARGE:  cpu time    1.93: real time    1.84
    MIXING:  cpu time    0.06: real time    0.06
    --------------------------------------------
      LOOP:  cpu time   50.69: real time   19.71

 eigenvalue-minimisations  :   256
 total energy-change (2. order) : 0.2415077E+00  (-0.3613214E-01)
 number of electron   91.9999999 magnetization 
 augmentation part    -1.1133645 magnetization 

 Broyden mixing:
  rms(total) = 0.20477E+00    rms(broyden)= 0.20477E+00
  rms(prec ) = 0.30212E+00
  weight for this iteration     100.00

 eigenvalues of (default mixing * dielectric matrix)
  average eigenvalue GAMMA=   1.6996
  2.4928  0.9063

 Free energy of the ion-electron system (eV)
  ---------------------------------------------------
  alpha Z        PSCENC =        -7.38312591
  Ewald energy   TEWEN  =     -2141.91741887
  -1/2 Hartree   DENC   =       -60.62722026
  -exchange  EXHF       =         0.00000000
  -V(xc)+E(xc)   XCENC  =      -793.77094008
  PAW double counting   =      1082.86531585     -113.43402395
  entropy T*S    EENTRO =        -0.04965610
  eigenvalues    EBANDS =       293.37699610
  atomic energy  EATOM  =      1629.13144109
  ---------------------------------------------------
  free energy    TOTEN  =      -111.80863213 eV

  energy without entropy =     -111.75897603  energy(sigma->0) =     -111.79208010


--------------------------------------------------------------------------------------------------------




----------------------------------------- Iteration    1(  15)  ---------------------------------------


    POTLOK:  cpu time    1.77: real time    1.75
    SETDIJ:  cpu time    0.15: real time    0.15
    EDDIAG:  cpu time    4.08: real time    3.01
  RMM-DIIS:  cpu time   41.61: real time   12.62
    ORTHCH:  cpu time    0.33: real time    0.08
       DOS:  cpu time    0.01: real time    0.00
    CHARGE:  cpu time    1.93: real time    1.84
    MIXING:  cpu time    0.07: real time    0.06
    --------------------------------------------
      LOOP:  cpu time   49.96: real time   19.50

 eigenvalue-minimisations  :   252
 total energy-change (2. order) : 0.1066919E+00  (-0.1321302E-01)
 number of electron   91.9999999 magnetization 
 augmentation part    -1.1276124 magnetization 

 Broyden mixing:
  rms(total) = 0.46902E-01    rms(broyden)= 0.46902E-01
  rms(prec ) = 0.82980E-01
  weight for this iteration     100.00

 eigenvalues of (default mixing * dielectric matrix)
  average eigenvalue GAMMA=   1.6022
  2.6101  1.0434  1.1530

 Free energy of the ion-electron system (eV)
  ---------------------------------------------------
  alpha Z        PSCENC =        -7.38312591
  Ewald energy   TEWEN  =     -2141.91741887
  -1/2 Hartree   DENC   =       -61.61619402
  -exchange  EXHF       =         0.00000000
  -V(xc)+E(xc)   XCENC  =      -792.59463088
  PAW double counting   =      1084.61341970     -115.34634698
  entropy T*S    EENTRO =        -0.05749287
  eigenvalues    EBANDS =       293.46840854
  atomic energy  EATOM  =      1629.13144109
  ---------------------------------------------------
  free energy    TOTEN  =      -111.70194020 eV

  energy without entropy =     -111.64444733  energy(sigma->0) =     -111.68277591


--------------------------------------------------------------------------------------------------------




----------------------------------------- Iteration    1(  16)  ---------------------------------------


    POTLOK:  cpu time    1.78: real time    1.73
    SETDIJ:  cpu time    0.15: real time    0.15
    EDDIAG:  cpu time    4.06: real time    3.00
  RMM-DIIS:  cpu time   43.33: real time   13.04
    ORTHCH:  cpu time    0.34: real time    0.08
       DOS:  cpu time    0.01: real time    0.00
    CHARGE:  cpu time    1.93: real time    1.84
    MIXING:  cpu time    0.08: real time    0.06
    --------------------------------------------
      LOOP:  cpu time   51.68: real time   19.91

 eigenvalue-minimisations  :   261
 total energy-change (2. order) : 0.8120747E-02  (-0.2401648E-02)
 number of electron   91.9999999 magnetization 
 augmentation part    -1.1326093 magnetization 

 Broyden mixing:
  rms(total) = 0.97329E-02    rms(broyden)= 0.97328E-02
  rms(prec ) = 0.25609E-01
  weight for this iteration     100.00

 eigenvalues of (default mixing * dielectric matrix)
  average eigenvalue GAMMA=   1.6642
  2.6061  2.0450  1.0028  1.0028

 Free energy of the ion-electron system (eV)
  ---------------------------------------------------
  alpha Z        PSCENC =        -7.38312591
  Ewald energy   TEWEN  =     -2141.91741887
  -1/2 Hartree   DENC   =       -62.01069115
  -exchange  EXHF       =         0.00000000
  -V(xc)+E(xc)   XCENC  =      -792.24744816
  PAW double counting   =      1085.18772231     -115.97931557
  entropy T*S    EENTRO =        -0.05305608
  eigenvalues    EBANDS =       293.57807288
  atomic energy  EATOM  =      1629.13144109
  ---------------------------------------------------
  free energy    TOTEN  =      -111.69381945 eV

  energy without entropy =     -111.64076338  energy(sigma->0) =     -111.67613409


--------------------------------------------------------------------------------------------------------




----------------------------------------- Iteration    1(  17)  ---------------------------------------


    POTLOK:  cpu time    1.95: real time    1.89
    SETDIJ:  cpu time    0.15: real time    0.15
    EDDIAG:  cpu time    4.02: real time    2.99
  RMM-DIIS:  cpu time   41.58: real time   12.59
    ORTHCH:  cpu time    0.34: real time    0.08
       DOS:  cpu time    0.01: real time    0.00
    CHARGE:  cpu time    1.93: real time    1.84
    MIXING:  cpu time    0.09: real time    0.06
    --------------------------------------------
      LOOP:  cpu time   50.08: real time   19.61

 eigenvalue-minimisations  :   251
 total energy-change (2. order) : 0.6563787E-03  (-0.3318065E-03)
 number of electron   91.9999999 magnetization 
 augmentation part    -1.1344371 magnetization 

 Broyden mixing:
  rms(total) = 0.27644E-02    rms(broyden)= 0.27644E-02
  rms(prec ) = 0.53562E-02
  weight for this iteration     100.00

 eigenvalues of (default mixing * dielectric matrix)
  average eigenvalue GAMMA=   1.6051
  2.6379  0.9550  0.9550  1.9043  1.5732

 Free energy of the ion-electron system (eV)
  ---------------------------------------------------
  alpha Z        PSCENC =        -7.38312591
  Ewald energy   TEWEN  =     -2141.91741887
  -1/2 Hartree   DENC   =       -61.84214002
  -exchange  EXHF       =         0.00000000
  -V(xc)+E(xc)   XCENC  =      -792.21469812
  PAW double counting   =      1085.28952723     -116.09525190
  entropy T*S    EENTRO =        -0.05439315
  eigenvalues    EBANDS =       293.39289658
  atomic energy  EATOM  =      1629.13144109
  ---------------------------------------------------
  free energy    TOTEN  =      -111.69316307 eV

  energy without entropy =     -111.63876992  energy(sigma->0) =     -111.67503202


--------------------------------------------------------------------------------------------------------




----------------------------------------- Iteration    1(  18)  ---------------------------------------


    POTLOK:  cpu time    1.94: real time    1.89
    SETDIJ:  cpu time    0.15: real time    0.15
    EDDIAG:  cpu time    4.02: real time    2.99
  RMM-DIIS:  cpu time   30.01: real time    9.27
    ORTHCH:  cpu time    0.34: real time    0.08
       DOS:  cpu time    0.00: real time    0.00
    --------------------------------------------
      LOOP:  cpu time   36.48: real time   14.39

 eigenvalue-minimisations  :   179
 total energy-change (2. order) :-0.8738048E-06  (-0.2264638E-04)
 number of electron   91.9999999 magnetization 
 augmentation part    -1.1344371 magnetization 

 Free energy of the ion-electron system (eV)
  ---------------------------------------------------
  alpha Z        PSCENC =        -7.38312591
  Ewald energy   TEWEN  =     -2141.91741887
  -1/2 Hartree   DENC   =       -61.87760530
  -exchange  EXHF       =         0.00000000
  -V(xc)+E(xc)   XCENC  =      -792.20328068
  PAW double counting   =      1085.31337255     -116.12384644
  entropy T*S    EENTRO =        -0.05428331
  eigenvalues    EBANDS =       293.42158293
  atomic energy  EATOM  =      1629.13144109
  ---------------------------------------------------
  free energy    TOTEN  =      -111.69316395 eV

  energy without entropy =     -111.63888064  energy(sigma->0) =     -111.67506951


--------------------------------------------------------------------------------------------------------




 average (electrostatic) potential at core
  the test charge radii are     1.0714  1.0406
  (the norm of the test charge is              1.0000)
       1 -50.6423       2 -73.0209       3 -73.1549       4 -73.0224       5 -73.0224
       6 -73.0537       7 -73.0728       8 -73.0501       9 -73.0031      10 -73.0234
      11 -73.0224      12 -73.0224      13 -73.1122      14 -73.1129      15 -73.0501
      16 -73.0031      17 -73.0537      18 -73.0728      19 -73.0031      20 -73.0501
      21 -73.1553      22 -72.9057      23 -73.0128      24 -73.0128      25 -73.1122
      26 -73.1129      27 -73.0031      28 -73.0501      29 -72.9970      30 -73.0128
      31 -73.0128
 
 
 
 E-fermi :   7.8347     XC(G=0):  -9.9890     alpha+bet :-14.3073
   add alpha+bet to get absolut eigen values

 k-point   1 :       0.2500    0.2500    0.2500
  band No.  band energies     occupation 
      1      -3.1599      2.00000
      2      -2.1256      2.00000
      3      -2.0433      2.00000
      4      -1.7338      2.00000
      5      -0.8980      2.00000
      6      -0.8846      2.00000
      7      -0.3806      2.00000
      8       0.0815      2.00000
      9       0.1756      2.00000
     10       0.4943      2.00000
     11       0.7000      2.00000
     12       1.1142      2.00000
     13       1.3069      2.00000
     14       1.3101      2.00000
     15       1.4742      2.00000
     16       1.7697      2.00000
     17       1.9277      2.00000
     18       2.7626      2.00000
     19       2.7650      2.00000
     20       3.0286      2.00000
     21       3.4063      2.00000
     22       3.4414      2.00000
     23       3.4895      2.00000
     24       3.5780      2.00000
     25       3.6245      2.00000
     26       4.0160      2.00000
     27       4.3205      2.00000
     28       4.4746      2.00000
     29       4.5948      2.00000
     30       4.7826      2.00000
     31       4.8401      2.00000
     32       4.8803      2.00000
     33       4.9448      2.00000
     34       5.0646      2.00000
     35       5.4383      2.00000
     36       5.7850      2.00000
     37       5.9129      2.00000
     38       6.4998      2.00000
     39       6.5642      2.00000
     40       6.6033      2.00000
     41       6.6915      2.00000
     42       6.8927      2.00000
     43       7.0241      2.00000
     44       7.0780      2.00000
     45       7.1943      2.00006
     46       7.7824      1.42627
     47       7.8559      0.82151
     48       7.9126      0.39251
     49       8.0210     -0.03301
     50       8.0422     -0.05723
     51       8.1301     -0.05731
     52       8.3032     -0.00454
     53       8.5043     -0.00002
     54       8.6225      0.00000
     55       8.9572      0.00000
     56       9.0413      0.00000
     57       9.0758      0.00000
     58       9.3180      0.00000
     59       9.3423      0.00000
     60       9.4806      0.00000
     61       9.9345      0.00000
     62      10.1445      0.00000

 k-point   2 :      -0.2500    0.2500    0.2500
  band No.  band energies     occupation 
      1      -3.1621      2.00000
      2      -2.1514      2.00000
      3      -1.9246      2.00000
      4      -1.8398      2.00000
      5      -0.9689      2.00000
      6      -0.6751      2.00000
      7      -0.5569      2.00000
      8       0.0516      2.00000
      9       0.2789      2.00000
     10       0.4095      2.00000
     11       0.7261      2.00000
     12       1.2669      2.00000
     13       1.2835      2.00000
     14       1.3568      2.00000
     15       1.5305      2.00000
     16       1.6663      2.00000
     17       1.8292      2.00000
     18       2.7076      2.00000
     19       2.8541      2.00000
     20       2.9352      2.00000
     21       3.3726      2.00000
     22       3.4837      2.00000
     23       3.5124      2.00000
     24       3.5499      2.00000
     25       3.6924      2.00000
     26       3.9390      2.00000
     27       4.4777      2.00000
     28       4.4923      2.00000
     29       4.5746      2.00000
     30       4.7377      2.00000
     31       4.7604      2.00000
     32       4.9351      2.00000
     33       4.9426      2.00000
     34       5.0443      2.00000
     35       5.3333      2.00000
     36       5.7391      2.00000
     37       6.1078      2.00000
     38       6.4072      2.00000
     39       6.5980      2.00000
     40       6.6068      2.00000
     41       6.8221      2.00000
     42       6.9622      2.00000
     43       7.0025      2.00000
     44       7.0687      2.00000
     45       7.1751      2.00003
     46       7.8304      1.03618
     47       7.8992      0.48413
     48       7.9617      0.12947
     49       8.0045     -0.00328
     50       8.0397     -0.05507
     51       8.1278     -0.05831
     52       8.2392     -0.01484
     53       8.2854     -0.00648
     54       8.4815     -0.00005
     55       9.0207      0.00000
     56       9.0480      0.00000
     57       9.1517      0.00000
     58       9.3515      0.00000
     59       9.3734      0.00000
     60       9.4326      0.00000
     61       9.9379      0.00000
     62      10.0050      0.00000


--------------------------------------------------------------------------------------------------------


 soft charge-density along one line, spin component           1
         0         1         2         3         4         5         6         7         8         9
 total charge-density along one line
 
 pseudopotential strength for first ion, spin component:           1
  3.565  -0.042   0.000   0.000   0.000   0.000   0.000   0.000
 -0.042  -0.002   0.000   0.000   0.000   0.000   0.000   0.000
  0.000   0.000   0.741   0.000   0.000  -0.042   0.000   0.000
  0.000   0.000   0.000   0.741   0.000   0.000  -0.042   0.000
  0.000   0.000   0.000   0.000   0.741   0.000   0.000  -0.042
  0.000   0.000  -0.042   0.000   0.000  -0.031   0.000   0.000
  0.000   0.000   0.000  -0.042   0.000   0.000  -0.031   0.000
  0.000   0.000   0.000   0.000  -0.042   0.000   0.000  -0.031
 total augmentation occupancy for first ion, spin component:           1
  1.072  -0.053   0.000   0.009   0.009   0.000   0.001   0.001
 -0.053   0.004   0.000  -0.004  -0.004   0.000   0.000   0.000
  0.000   0.000   0.813   0.000   0.000   0.031   0.000   0.000
  0.009  -0.004   0.000   0.723  -0.066   0.000   0.027  -0.003
  0.009  -0.004   0.000  -0.066   0.723   0.000  -0.003   0.027
  0.000   0.000   0.031   0.000   0.000   0.001   0.000   0.000
  0.001   0.000   0.000   0.027  -0.003   0.000   0.001   0.000
  0.001   0.000   0.000  -0.003   0.027   0.000   0.000   0.001


------------------------ aborting loop because EDIFF is reached ----------------------------------------




--------------------------------------------------------------------------------------------------------



  FREE ENERGIE OF THE ION-ELECTRON SYSTEM (eV)
  ---------------------------------------------------
  free  energy   TOTEN  =      -111.693164 eV

  energy  without entropy=     -111.638881  energy(sigma->0) =     -111.675070
 
    CHARGE:  cpu time    1.84: real time    1.84
    FORLOC:  cpu time    0.74: real time    0.74
    FORNL :  cpu time    5.84: real time    5.84
    STRESS:  cpu time   33.57: real time    9.12
    FORCOR:  cpu time    2.57: real time    2.57
    FORHAR:  cpu time    1.16: real time    1.16
    MIXING:  cpu time    0.10: real time    0.06

  FORCE on cell =-STRESS in cart. coord.  units (eV):
  Direction    XX          YY          ZZ          XY          YZ          ZX
  --------------------------------------------------------------------------------------
  Alpha Z    -7.38313    -7.38313    -7.38313
  Ewald    -703.50996  -734.90591  -703.50996     0.00000     0.00000     5.00206
  Hartree    27.96247     5.97135    27.96247     0.00000     0.00000     3.81981
  E(xc)    -261.88562  -261.96760  -261.88562     0.00000     0.00000     0.09366
  Local     -57.94165    -5.24032   -57.94165     0.00000     0.00000    -8.87229
  n-local   579.34163   580.03836   579.34182     0.27236    -1.14379    -0.83201
  augment   -30.29804   -30.36787   -30.29803     0.00001     0.00001     0.01992
  Kinetic   457.03073   458.57232   457.03095    -2.41742     1.82242     0.41251
  Fock        0.00000     0.00000     0.00000     0.00000     0.00000     0.00000
  -------------------------------------------------------------------------------------
  Total       3.31664     4.71720     3.31664     0.00000     0.00000    -0.35635
  in kB      10.04704    14.28972    10.04704     0.00000     0.00000    -1.07948
  external pressure =       11.46 kB  Pullay stress =        0.00 kB


 VOLUME and BASIS-vectors are now :
 -----------------------------------------------------------------------------
  energy-cutoff  :      300.00
  volume of cell :      528.90
      direct lattice vectors                 reciprocal lattice vectors
     8.087054000  0.000000000  0.000000000     0.123654423  0.000000000  0.000000000
     0.000000000  8.087054000  0.000000000     0.000000000  0.123654423  0.000000000
     0.000000000  0.000000000  8.087054000     0.000000000  0.000000000  0.123654423

  length of vectors
     8.087054000  8.087054000  8.087054000     0.123654423  0.123654423  0.123654423


 FORCES acting on ions
    electron-ion (+dipol)            ewald-force                    non-local-force                 convergence-correction
 -----------------------------------------------------------------------------------------------
   0.731E+01 0.127E-12 0.731E+01   -.709E+01 0.375E-14 -.709E+01   -.405E+00 0.000E+00 -.405E+00   -.120E-03 0.305E-13 -.121E-03
   -.484E+01 0.763E-14 -.484E+01   0.457E+01 -.117E-14 0.457E+01   0.316E+00 0.000E+00 0.316E+00   0.101E-02 -.348E-13 0.101E-02
   -.241E+01 0.278E-13 -.241E+01   0.239E+01 0.339E-14 0.239E+01   -.660E-01 0.000E+00 -.660E-01   0.204E-02 -.449E-13 0.204E-02
   -.492E+01 -.169E+02 -.132E+02   0.458E+01 0.164E+02 0.128E+02   0.569E+00 0.916E+00 0.860E+00   0.161E-02 0.412E-02 -.234E-03
   -.132E+02 -.169E+02 -.492E+01   0.128E+02 0.164E+02 0.458E+01   0.860E+00 0.916E+00 0.569E+00   -.235E-03 0.412E-02 0.161E-02
   0.478E+01 0.604E-14 -.301E+01   -.468E+01 0.804E-12 0.274E+01   -.235E+00 -.347E-17 0.137E+00   -.144E-02 -.348E-13 0.132E-02
   0.257E+01 -.347E-14 -.425E+01   -.242E+01 -.666E-15 0.436E+01   -.877E-01 0.000E+00 0.118E+00   -.161E-02 -.496E-13 0.169E-02
   0.384E+01 -.772E+01 -.377E+01   -.376E+01 0.742E+01 0.356E+01   -.196E+00 0.432E+00 0.150E+00   -.142E-02 0.585E-02 0.146E-02
   0.121E+02 -.223E+02 -.911E+01   -.119E+02 0.215E+02 0.881E+01   -.513E+00 0.167E+01 0.587E+00   0.143E-03 0.223E-02 -.226E-03
   -.142E+02 0.595E-12 -.142E+02   0.135E+02 0.138E-13 0.135E+02   0.111E+01 0.000E+00 0.111E+01   -.508E-03 0.345E-13 -.507E-03
   -.492E+01 0.169E+02 -.132E+02   0.458E+01 -.164E+02 0.128E+02   0.569E+00 -.916E+00 0.860E+00   0.161E-02 -.412E-02 -.234E-03
   -.132E+02 0.169E+02 -.492E+01   0.128E+02 -.164E+02 0.458E+01   0.860E+00 -.916E+00 0.569E+00   -.235E-03 -.412E-02 0.161E-02
   0.148E+02 -.653E-14 -.119E+02   -.142E+02 -.405E-14 0.115E+02   -.109E+01 -.694E-17 0.710E+00   0.481E-03 0.335E-13 0.344E-03
   0.810E+01 0.134E-12 -.116E+02   -.765E+01 0.166E-11 0.110E+02   -.770E+00 0.000E+00 0.111E+01   -.310E-04 0.488E-13 -.737E-03
   0.384E+01 0.772E+01 -.377E+01   -.376E+01 -.742E+01 0.356E+01   -.196E+00 -.432E+00 0.150E+00   -.142E-02 -.585E-02 0.146E-02
   0.121E+02 0.223E+02 -.911E+01   -.119E+02 -.215E+02 0.881E+01   -.513E+00 -.167E+01 0.587E+00   0.143E-03 -.223E-02 -.226E-03
   -.301E+01 -.256E-12 0.478E+01   0.274E+01 0.300E-14 -.468E+01   0.137E+00 0.173E-17 -.235E+00   0.132E-02 -.713E-13 -.144E-02
   -.425E+01 0.325E-14 0.257E+01   0.436E+01 0.134E-13 -.242E+01   0.118E+00 0.488E-18 -.877E-01   0.169E-02 -.442E-13 -.161E-02
   -.911E+01 -.223E+02 0.121E+02   0.881E+01 0.215E+02 -.119E+02   0.587E+00 0.167E+01 -.513E+00   -.227E-03 0.223E-02 0.142E-03
   -.377E+01 -.772E+01 0.384E+01   0.356E+01 0.742E+01 -.376E+01   0.150E+00 0.432E+00 -.196E+00   0.146E-02 0.585E-02 -.142E-02
   0.218E+01 -.364E-13 0.218E+01   -.217E+01 0.466E-14 -.217E+01   0.243E+00 0.000E+00 0.243E+00   -.181E-02 -.495E-13 -.181E-02
   0.515E+01 -.170E-13 0.515E+01   -.475E+01 0.977E-12 -.475E+01   -.648E+00 0.000E+00 -.648E+00   -.119E-02 -.501E-13 -.120E-02
   0.932E+01 -.137E+02 0.394E+01   -.898E+01 0.131E+02 -.367E+01   -.792E+00 0.919E+00 -.265E+00   0.534E-03 0.353E-02 -.168E-02
   0.394E+01 -.137E+02 0.932E+01   -.367E+01 0.131E+02 -.898E+01   -.265E+00 0.919E+00 -.792E+00   -.168E-02 0.353E-02 0.533E-03
   -.119E+02 0.818E-13 0.148E+02   0.115E+02 -.561E-14 -.142E+02   0.710E+00 0.000E+00 -.109E+01   0.343E-03 0.701E-13 0.480E-03
   -.116E+02 -.733E-13 0.810E+01   0.110E+02 0.909E-12 -.765E+01   0.111E+01 -.867E-18 -.770E+00   -.738E-03 0.429E-13 -.321E-04
   -.911E+01 0.223E+02 0.121E+02   0.881E+01 -.215E+02 -.119E+02   0.587E+00 -.167E+01 -.513E+00   -.227E-03 -.223E-02 0.142E-03
   -.377E+01 0.772E+01 0.384E+01   0.356E+01 -.742E+01 -.376E+01   0.150E+00 -.432E+00 -.196E+00   0.146E-02 -.585E-02 -.142E-02
   0.107E+02 -.352E-14 0.107E+02   -.999E+01 0.156E-11 -.999E+01   -.109E+01 0.000E+00 -.109E+01   0.798E-03 0.485E-13 0.797E-03
   0.932E+01 0.137E+02 0.394E+01   -.898E+01 -.131E+02 -.367E+01   -.792E+00 -.919E+00 -.265E+00   0.534E-03 -.353E-02 -.168E-02
   0.394E+01 0.137E+02 0.932E+01   -.367E+01 -.131E+02 -.898E+01   -.265E+00 -.919E+00 -.792E+00   -.168E-02 -.353E-02 0.533E-03
 -----------------------------------------------------------------------------------------------
   -.150E+00 0.696E-12 -.150E+00   0.711E-14 0.284E-13 -.639E-13   0.149E+00 0.333E-15 0.149E+00   0.610E-03 -.118E-12 0.610E-03
 
 
 POSITION                                       TOTAL-FORCE (eV/Angst)
 -----------------------------------------------------------------------------------
      3.99630      4.04353      3.99630        -0.179641      0.000000     -0.179641
      8.06961      0.00000      8.06961         0.054637      0.000000      0.054637
      2.00654      0.00000      2.00654        -0.088394      0.000000     -0.088394
      1.97901      1.96044      8.04462         0.234837      0.429532      0.478967
      8.04462      1.96044      1.97901         0.478967      0.429532      0.234837
      4.07017      0.00000      8.05178        -0.140071      0.000000     -0.127206
      6.10755      0.00000      1.99051         0.062664      0.000000      0.223375
      6.10332      1.96904      8.06528        -0.121097      0.133786     -0.065306
      4.10967      1.84886      1.93117        -0.297588      0.808554      0.289001
      8.03714      4.04353      8.03714         0.471288      0.000000      0.471288
      1.97901      6.12661      8.04462         0.234837     -0.429532      0.478967
      8.04462      6.12661      1.97901         0.478967     -0.429532      0.234837
      4.13085      4.04353      8.03645        -0.505302      0.000000      0.298543
      6.15776      4.04353      1.90875        -0.323032      0.000000      0.527015
      6.10332      6.11802      8.06528        -0.121097     -0.133786     -0.065306
      4.10967      6.23819      1.93117        -0.297588     -0.808554      0.289001
      8.05178      0.00000      4.07017        -0.127206      0.000000     -0.140071
      1.99051      0.00000      6.10755         0.223375      0.000000      0.062664
      1.93117      1.84886      4.10967         0.289001      0.808554     -0.297588
      8.06528      1.96904      6.10332        -0.065306      0.133786     -0.121097
      4.04043      0.00000      4.04043         0.253855      0.000000      0.253855
      6.11004      0.00000      6.11004        -0.247189      0.000000     -0.247189
      6.13886      1.93916      4.05762        -0.450295      0.331407      0.001368
      4.05762      1.93916      6.13886         0.001368      0.331407     -0.450295
      8.03645      4.04353      4.13085         0.298543      0.000000     -0.505302
      1.90875      4.04353      6.15776         0.527015      0.000000     -0.323032
      1.93117      6.23819      4.10967         0.289001     -0.808554     -0.297588
      8.06528      6.11802      6.10332        -0.065306     -0.133786     -0.121097
      6.14636      4.04353      6.14636        -0.420315      0.000000     -0.420315
      6.13886      6.14789      4.05762        -0.450295     -0.331407      0.001368
      4.05762      6.14789      6.13886         0.001368     -0.331407     -0.450295
 -----------------------------------------------------------------------------------
    total drift:                               -0.000416      0.000000     -0.000416


--------------------------------------------------------------------------------------------------------


    POTLOK:  cpu time    2.09: real time    2.03


--------------------------------------------------------------------------------------------------------


  FORCES: max atom, RMS     0.908757    0.549029
  FORCE total and by dimension    3.056864    0.808554


--------------------------------------------------------------------------------------------------------


    WAVPRE:  cpu time    0.87: real time    0.87
    FEWALD:  cpu time    0.01: real time    0.01
    ORTHCH:  cpu time    3.96: real time    1.01
     LOOP+:  cpu time  733.52: real time  284.83
   RESPFUN:  cpu time    0.01: real time    0.00


----------------------------------------- Iteration    2(   1)  ---------------------------------------


    POTLOK:  cpu time    1.97: real time    1.88
    SETDIJ:  cpu time    0.15: real time    0.15
    EDDIAG:  cpu time    4.02: real time    2.99
  RMM-DIIS:  cpu time   40.54: real time   12.20
    ORTHCH:  cpu time    0.33: real time    0.08
       DOS:  cpu time    0.01: real time    0.00
    CHARGE:  cpu time    1.93: real time    1.83
    MIXING:  cpu time    0.05: real time    0.05
    --------------------------------------------
      LOOP:  cpu time   49.01: real time   19.20

 eigenvalue-minimisations  :   248
 total energy-change (2. order) :-0.4067708E+00  (-0.3058947E+00)
 number of electron   92.0000000 magnetization 
 augmentation part    -1.1353813 magnetization 

 Broyden mixing:
  rms(total) = 0.35684E-01    rms(broyden)= 0.35676E-01
  rms(prec ) = 0.11605E+00
  weight for this iteration     100.00

 Free energy of the ion-electron system (eV)
  ---------------------------------------------------
  alpha Z        PSCENC =        -7.38312591
  Ewald energy   TEWEN  =     -2153.45882496
  -1/2 Hartree   DENC   =       -52.66196237
  -exchange  EXHF       =         0.00000000
  -V(xc)+E(xc)   XCENC  =      -792.36841056
  PAW double counting   =      1085.31846285     -116.13187615
  entropy T*S    EENTRO =        -0.03833900
  eigenvalues    EBANDS =       295.49270116
  atomic energy  EATOM  =      1629.13144109
  ---------------------------------------------------
  free energy    TOTEN  =      -112.09993384 eV

  energy without entropy =     -112.06159485  energy(sigma->0) =     -112.08715418


--------------------------------------------------------------------------------------------------------




----------------------------------------- Iteration    2(   2)  ---------------------------------------


    POTLOK:  cpu time    1.76: real time    1.76
    SETDIJ:  cpu time    0.15: real time    0.15
    EDDIAG:  cpu time    4.06: real time    3.00
  RMM-DIIS:  cpu time   41.73: real time   12.49
    ORTHCH:  cpu time    0.34: real time    0.08
       DOS:  cpu time    0.01: real time    0.00
    CHARGE:  cpu time    1.93: real time    1.84
    MIXING:  cpu time    0.05: real time    0.05
    --------------------------------------------
      LOOP:  cpu time   50.03: real time   19.38

 eigenvalue-minimisations  :   253
 total energy-change (2. order) : 0.1484054E-01  (-0.5882761E-02)
 number of electron   92.0000000 magnetization 
 augmentation part    -1.1358557 magnetization 

 Broyden mixing:
  rms(total) = 0.14821E-01    rms(broyden)= 0.14820E-01
  rms(prec ) = 0.33888E-01
  weight for this iteration     100.00

 eigenvalues of (default mixing * dielectric matrix)
  average eigenvalue GAMMA=   1.4672
  1.4672

 Free energy of the ion-electron system (eV)
  ---------------------------------------------------
  alpha Z        PSCENC =        -7.38312591
  Ewald energy   TEWEN  =     -2153.45882496
  -1/2 Hartree   DENC   =       -52.15485070
  -exchange  EXHF       =         0.00000000
  -V(xc)+E(xc)   XCENC  =      -792.38424149
  PAW double counting   =      1084.99997329     -115.80132499
  entropy T*S    EENTRO =        -0.04578431
  eigenvalues    EBANDS =       295.01164468
  atomic energy  EATOM  =      1629.13144109
  ---------------------------------------------------
  free energy    TOTEN  =      -112.08509330 eV

  energy without entropy =     -112.03930899  energy(sigma->0) =     -112.06983186


--------------------------------------------------------------------------------------------------------




----------------------------------------- Iteration    2(   3)  ---------------------------------------


    POTLOK:  cpu time    1.75: real time    1.75
    SETDIJ:  cpu time    0.15: real time    0.15
    EDDIAG:  cpu time    4.09: real time    3.01
  RMM-DIIS:  cpu time   42.68: real time   12.70
    ORTHCH:  cpu time    0.33: real time    0.08
       DOS:  cpu time    0.01: real time    0.00
    CHARGE:  cpu time    1.93: real time    1.84
    MIXING:  cpu time    0.06: real time    0.05
    --------------------------------------------
      LOOP:  cpu time   51.01: real time   19.59

 eigenvalue-minimisations  :   257
 total energy-change (2. order) : 0.1202105E-02  (-0.8169455E-03)
 number of electron   92.0000000 magnetization 
 augmentation part    -1.1360351 magnetization 

 Broyden mixing:
  rms(total) = 0.62092E-02    rms(broyden)= 0.62091E-02
  rms(prec ) = 0.97372E-02
  weight for this iteration     100.00

 eigenvalues of (default mixing * dielectric matrix)
  average eigenvalue GAMMA=   1.4996
  1.7025  1.2967

 Free energy of the ion-electron system (eV)
  ---------------------------------------------------
  alpha Z        PSCENC =        -7.38312591
  Ewald energy   TEWEN  =     -2153.45882496
  -1/2 Hartree   DENC   =       -51.98340193
  -exchange  EXHF       =         0.00000000
  -V(xc)+E(xc)   XCENC  =      -792.39342373
  PAW double counting   =      1084.79299339     -115.58540721
  entropy T*S    EENTRO =        -0.04700281
  eigenvalues    EBANDS =       294.84286087
  atomic energy  EATOM  =      1629.13144109
  ---------------------------------------------------
  free energy    TOTEN  =      -112.08389120 eV

  energy without entropy =     -112.03688839  energy(sigma->0) =     -112.06822359


--------------------------------------------------------------------------------------------------------




----------------------------------------- Iteration    2(   4)  ---------------------------------------


    POTLOK:  cpu time    1.76: real time    1.74
    SETDIJ:  cpu time    0.15: real time    0.15
    EDDIAG:  cpu time    4.10: real time    3.02
  RMM-DIIS:  cpu time   34.94: real time   10.60
    ORTHCH:  cpu time    0.33: real time    0.08
       DOS:  cpu time    0.01: real time    0.00
    --------------------------------------------
      LOOP:  cpu time   41.30: real time   15.59

 eigenvalue-minimisations  :   208
 total energy-change (2. order) :-0.2225724E-04  (-0.5851925E-04)
 number of electron   92.0000000 magnetization 
 augmentation part    -1.1360351 magnetization 

 Free energy of the ion-electron system (eV)
  ---------------------------------------------------
  alpha Z        PSCENC =        -7.38312591
  Ewald energy   TEWEN  =     -2153.45882496
  -1/2 Hartree   DENC   =       -51.98998846
  -exchange  EXHF       =         0.00000000
  -V(xc)+E(xc)   XCENC  =      -792.39652047
  PAW double counting   =      1084.70294383     -115.49106161
  entropy T*S    EENTRO =        -0.04658247
  eigenvalues    EBANDS =       294.84780551
  atomic energy  EATOM  =      1629.13144109
  ---------------------------------------------------
  free energy    TOTEN  =      -112.08391345 eV

  energy without entropy =     -112.03733098  energy(sigma->0) =     -112.06838596


--------------------------------------------------------------------------------------------------------




 average (electrostatic) potential at core
  the test charge radii are     1.0714  1.0406
  (the norm of the test charge is              1.0000)
       1 -50.5849       2 -73.0275       3 -73.1445       4 -73.0274       5 -73.0274
       6 -73.0643       7 -73.0829       8 -73.0542       9 -72.9933      10 -73.0351
      11 -73.0274      12 -73.0274      13 -73.0912      14 -73.0955      15 -73.0542
      16 -72.9933      17 -73.0643      18 -73.0829      19 -72.9933      20 -73.0542
      21 -73.1432      22 -72.9096      23 -73.0166      24 -73.0166      25 -73.0912
[...]


    POTLOK:  cpu time    1.78: real time    1.76
    SETDIJ:  cpu time    0.15: real time    0.15
    EDDIAG:  cpu time    4.11: real time    3.02
  RMM-DIIS:  cpu time   28.48: real time    8.89
    ORTHCH:  cpu time    0.33: real time    0.08
       DOS:  cpu time    0.00: real time    0.00
    --------------------------------------------
      LOOP:  cpu time   34.86: real time   13.90

 eigenvalue-minimisations  :   170
 total energy-change (2. order) :-0.4069539E-05  (-0.1798321E-04)
 number of electron   91.9999996 magnetization 
 augmentation part    -1.1401866 magnetization 

 Free energy of the ion-electron system (eV)
  ---------------------------------------------------
  alpha Z        PSCENC =        -7.38312591
  Ewald energy   TEWEN  =     -2181.80209231
  -1/2 Hartree   DENC   =       -27.01773456
  -exchange  EXHF       =         0.00000000
  -V(xc)+E(xc)   XCENC  =      -792.88352332
  PAW double counting   =      1083.50321893     -114.24321978
  entropy T*S    EENTRO =        -0.03899991
  eigenvalues    EBANDS =       298.16017640
  atomic energy  EATOM  =      1629.13144109
  ---------------------------------------------------
  free energy    TOTEN  =      -112.57385938 eV

  energy without entropy =     -112.53485947  energy(sigma->0) =     -112.56085941


--------------------------------------------------------------------------------------------------------




 average (electrostatic) potential at core
  the test charge radii are     1.0714  1.0406
  (the norm of the test charge is              1.0000)
       1 -50.4217       2 -73.0258       3 -73.1362       4 -73.0370       5 -73.0370
       6 -73.0794       7 -73.1069       8 -73.0596       9 -72.9726      10 -73.0412
      11 -73.0370      12 -73.0370      13 -73.0486      14 -73.0711      15 -73.0596
      16 -72.9726      17 -73.0794      18 -73.1069      19 -72.9726      20 -73.0596
      21 -73.1089      22 -72.9153      23 -73.0301      24 -73.0301      25 -73.0486
      26 -73.0711      27 -72.9726      28 -73.0596      29 -73.0461      30 -73.0301
      31 -73.0301
 
 
 
 E-fermi :   7.8532     XC(G=0): -10.0132     alpha+bet :-14.3073
   add alpha+bet to get absolut eigen values

 k-point   1 :       0.2500    0.2500    0.2500
  band No.  band energies     occupation 
      1      -2.9528      2.00000
      2      -1.9230      2.00000
      3      -1.8724      2.00000
      4      -1.6385      2.00000
      5      -0.8021      2.00000
      6      -0.7485      2.00000
      7      -0.3838      2.00000
      8       0.2944      2.00000
      9       0.3331      2.00000
     10       0.5041      2.00000
     11       0.6137      2.00000
     12       1.3482      2.00000
     13       1.4020      2.00000
     14       1.4202      2.00000
     15       1.5541      2.00000
     16       1.7300      2.00000
     17       1.9677      2.00000
     18       2.6623      2.00000
     19       2.6779      2.00000
     20       2.8488      2.00000
     21       3.5427      2.00000
     22       3.6139      2.00000
     23       3.6609      2.00000
     24       3.7145      2.00000
     25       3.7526      2.00000
     26       4.0388      2.00000
     27       4.5419      2.00000
     28       4.5960      2.00000
     29       4.6351      2.00000
     30       4.7564      2.00000
     31       4.8132      2.00000
     32       4.8842      2.00000
     33       4.9350      2.00000
     34       5.0581      2.00000
     35       5.2405      2.00000
     36       5.7189      2.00000
     37       5.8330      2.00000
     38       6.3337      2.00000
     39       6.7377      2.00000
     40       6.7636      2.00000
     41       6.7974      2.00000
     42       6.9706      2.00000
     43       7.0144      2.00000
     44       7.0728      2.00000
     45       7.1155      2.00000
     46       7.8148      1.31811
     47       7.8462      1.05855
     48       7.9402      0.33502
     49       8.0805     -0.06824
     50       8.1654     -0.04973
     51       8.2292     -0.02309
     52       8.2580     -0.01476
     53       8.3301     -0.00382
     54       8.4164     -0.00050
     55       9.0918      0.00000
     56       9.1549      0.00000
     57       9.1654      0.00000
     58       9.3957      0.00000
     59       9.4176      0.00000
     60       9.4799      0.00000
     61       9.9875      0.00000
     62      10.0665      0.00000

 k-point   2 :      -0.2500    0.2500    0.2500
  band No.  band energies     occupation 
      1      -2.9557      2.00000
      2      -1.9162      2.00000
      3      -1.8153      2.00000
      4      -1.7062      2.00000
      5      -0.8005      2.00000
      6      -0.6661      2.00000
      7      -0.5199      2.00000
      8       0.2998      2.00000
      9       0.4006      2.00000
     10       0.4341      2.00000
     11       0.6856      2.00000
     12       1.3767      2.00000
     13       1.4609      2.00000
     14       1.4736      2.00000
     15       1.5063      2.00000
     16       1.7271      2.00000
     17       1.8723      2.00000
     18       2.6305      2.00000
     19       2.7355      2.00000
     20       2.7726      2.00000
     21       3.5531      2.00000
     22       3.6264      2.00000
     23       3.6548      2.00000
     24       3.6894      2.00000
     25       3.7658      2.00000
     26       4.0072      2.00000
     27       4.5718      2.00000
     28       4.6542      2.00000
     29       4.6766      2.00000
     30       4.7239      2.00000
     31       4.7437      2.00000
     32       4.9159      2.00000
     33       4.9347      2.00000
     34       5.0560      2.00000
     35       5.1801      2.00000
     36       5.7320      2.00000
     37       5.9520      2.00000
     38       6.2613      2.00000
     39       6.7565      2.00000
     40       6.7769      2.00000
     41       6.8819      2.00000
     42       7.0052      2.00000
     43       7.0233      2.00000
     44       7.0594      2.00000
     45       7.1353      2.00000
     46       7.8464      1.05720
     47       7.9123      0.52286
     48       7.9789      0.13516
     49       8.0689     -0.06300
     50       8.1280     -0.06533
     51       8.1371     -0.06205
     52       8.1817     -0.04221
     53       8.2278     -0.02356
     54       8.2773     -0.01062
     55       9.1353      0.00000
     56       9.1589      0.00000
     57       9.3039      0.00000
     58       9.3976      0.00000
     59       9.4030      0.00000
     60       9.4827      0.00000
     61      10.0034      0.00000
     62      10.0200      0.00000


--------------------------------------------------------------------------------------------------------


 soft charge-density along one line, spin component           1
         0         1         2         3         4         5         6         7         8         9
 total charge-density along one line
 
 pseudopotential strength for first ion, spin component:           1
  3.575  -0.046   0.000   0.000   0.000   0.000   0.000   0.000
 -0.046  -0.001   0.000   0.000   0.000   0.000   0.000   0.000
  0.000   0.000   0.746   0.000   0.000  -0.044   0.000   0.000
  0.000   0.000   0.000   0.746   0.000   0.000  -0.044   0.000
  0.000   0.000   0.000   0.000   0.746   0.000   0.000  -0.044
  0.000   0.000  -0.044   0.000   0.000  -0.031   0.000   0.000
  0.000   0.000   0.000  -0.044   0.000   0.000  -0.031   0.000
  0.000   0.000   0.000   0.000  -0.044   0.000   0.000  -0.031
 total augmentation occupancy for first ion, spin component:           1
  1.099  -0.054   0.000  -0.020  -0.020   0.000  -0.001  -0.001
 -0.054   0.004   0.000  -0.003  -0.003   0.000   0.000   0.000
  0.000   0.000   0.989   0.000   0.000   0.051   0.000   0.000
 -0.020  -0.003   0.000   0.888  -0.061   0.000   0.047  -0.004
 -0.020  -0.003   0.000  -0.061   0.888   0.000  -0.004   0.047
  0.000   0.000   0.051   0.000   0.000   0.003   0.000   0.000
 -0.001   0.000   0.000   0.047  -0.004   0.000   0.003   0.000
 -0.001   0.000   0.000  -0.004   0.047   0.000   0.000   0.003


------------------------ aborting loop because EDIFF is reached ----------------------------------------




--------------------------------------------------------------------------------------------------------



  FREE ENERGIE OF THE ION-ELECTRON SYSTEM (eV)
  ---------------------------------------------------
  free  energy   TOTEN  =      -112.573859 eV

  energy  without entropy=     -112.534859  energy(sigma->0) =     -112.560859
 
    CHARGE:  cpu time    1.84: real time    1.84
    FORLOC:  cpu time    0.74: real time    0.74
    FORNL :  cpu time    5.83: real time    5.83
    STRESS:  cpu time   33.57: real time    9.11
    FORCOR:  cpu time    2.58: real time    2.58
    FORHAR:  cpu time    1.16: real time    1.16
    MIXING:  cpu time    0.07: real time    0.06

  FORCE on cell =-STRESS in cart. coord.  units (eV):
  Direction    XX          YY          ZZ          XY          YZ          ZX
  --------------------------------------------------------------------------------------
  Alpha Z    -7.38313    -7.38313    -7.38313
  Ewald    -724.31207  -733.18681  -724.31207     0.00000     0.00000     5.52826
  Hartree    11.02214     4.93556    11.02214     0.00000     0.00000     3.04559
  E(xc)    -260.83501  -260.89796  -260.83502     0.00000     0.00000     0.06578
  Local     -18.63672    -3.66686   -18.63672     0.00000     0.00000    -8.38843
  n-local   576.97252   577.32252   576.97253     0.29730    -1.10321    -0.53153
  augment   -30.46846   -30.57243   -30.46846     0.00000    -0.00001    -0.03182
  Kinetic   451.99503   456.09374   451.99497    -3.68248     0.92001     2.17838
  Fock        0.00000     0.00000     0.00000     0.00000     0.00000     0.00000
  -------------------------------------------------------------------------------------
  Total      -1.64573     2.64463    -1.64573     0.00000     0.00000     1.86622
  in kB      -4.98536     8.01133    -4.98536     0.00000     0.00000     5.65331
  external pressure =       -0.65 kB  Pullay stress =        0.00 kB


 VOLUME and BASIS-vectors are now :
 -----------------------------------------------------------------------------
  energy-cutoff  :      300.00
  volume of cell :      528.90
      direct lattice vectors                 reciprocal lattice vectors
     8.087054000  0.000000000  0.000000000     0.123654423  0.000000000  0.000000000
     0.000000000  8.087054000  0.000000000     0.000000000  0.123654423  0.000000000
     0.000000000  0.000000000  8.087054000     0.000000000  0.000000000  0.123654423

  length of vectors
     8.087054000  8.087054000  8.087054000     0.123654423  0.123654423  0.123654423


 FORCES acting on ions
    electron-ion (+dipol)            ewald-force                    non-local-force                 convergence-correction
 -----------------------------------------------------------------------------------------------
   0.516E+01 -.915E-13 0.516E+01   -.511E+01 -.400E-14 -.511E+01   -.523E-01 0.000E+00 -.523E-01   0.460E-02 -.262E-13 0.460E-02
   -.300E+01 0.291E-12 -.300E+01   0.267E+01 0.588E-14 0.267E+01   0.328E+00 0.000E+00 0.328E+00   -.312E-02 -.395E-13 -.312E-02
   -.120E+01 -.749E-14 -.120E+01   0.115E+01 -.505E-14 0.115E+01   0.717E-01 0.000E+00 0.717E-01   -.828E-02 0.497E-13 -.828E-02
   -.507E+00 -.856E+01 -.750E+01   0.595E+00 0.877E+01 0.773E+01   -.128E+00 -.214E+00 -.248E+00   -.494E-02 -.115E-01 -.563E-02
   -.750E+01 -.856E+01 -.507E+00   0.773E+01 0.877E+01 0.595E+00   -.248E+00 -.214E+00 -.128E+00   -.563E-02 -.114E-01 -.494E-02
   0.200E+01 -.711E-13 -.271E+01   -.207E+01 0.472E-14 0.247E+01   0.828E-01 0.000E+00 0.266E+00   0.307E-02 -.700E-14 -.113E-01
   0.120E+01 -.137E-13 -.429E+00   -.105E+01 -.627E-14 0.625E+00   -.180E+00 -.434E-18 -.222E+00   0.765E-02 -.252E-13 0.422E-03
   0.711E+00 -.323E+01 -.278E+01   -.798E+00 0.327E+01 0.263E+01   0.952E-01 -.448E-01 0.169E+00   0.467E-02 -.941E-02 -.819E-02
   0.777E+01 -.115E+02 -.499E+01   -.786E+01 0.117E+02 0.495E+01   0.696E-01 -.223E+00 0.438E-01   0.579E-02 -.747E-02 -.183E-02
   -.755E+01 -.220E-13 -.755E+01   0.774E+01 0.305E-14 0.774E+01   -.217E+00 0.000E+00 -.217E+00   -.514E-02 0.407E-13 -.513E-02
   -.507E+00 0.856E+01 -.750E+01   0.595E+00 -.877E+01 0.773E+01   -.128E+00 0.214E+00 -.248E+00   -.494E-02 0.115E-01 -.563E-02
   -.750E+01 0.856E+01 -.507E+00   0.773E+01 -.877E+01 0.595E+00   -.248E+00 0.214E+00 -.128E+00   -.563E-02 0.114E-01 -.494E-02
   0.773E+01 -.134E-12 -.778E+01   -.783E+01 -.111E-15 0.796E+01   0.999E-01 0.139E-16 -.116E+00   0.519E-02 0.859E-14 -.839E-02
   0.397E+01 0.802E-13 -.415E+01   -.414E+01 0.333E-15 0.422E+01   0.163E+00 0.000E+00 -.105E+00   0.414E-02 0.319E-13 -.126E-02
   0.711E+00 0.323E+01 -.278E+01   -.798E+00 -.327E+01 0.263E+01   0.952E-01 0.448E-01 0.169E+00   0.467E-02 0.941E-02 -.819E-02
   0.777E+01 0.115E+02 -.499E+01   -.786E+01 -.117E+02 0.495E+01   0.696E-01 0.223E+00 0.438E-01   0.579E-02 0.747E-02 -.183E-02
   -.271E+01 -.182E-13 0.200E+01   0.247E+01 0.544E-14 -.207E+01   0.266E+00 0.000E+00 0.828E-01   -.113E-01 0.423E-13 0.307E-02
   -.429E+00 -.869E-13 0.120E+01   0.625E+00 0.122E-14 -.105E+01   -.222E+00 0.867E-18 -.180E+00   0.422E-03 0.252E-14 0.765E-02
   -.499E+01 -.115E+02 0.777E+01   0.495E+01 0.117E+02 -.786E+01   0.438E-01 -.223E+00 0.696E-01   -.183E-02 -.747E-02 0.579E-02
   -.278E+01 -.323E+01 0.711E+00   0.263E+01 0.327E+01 -.798E+00   0.169E+00 -.448E-01 0.952E-01   -.819E-02 -.941E-02 0.467E-02
   0.291E+01 -.676E-13 0.291E+01   -.270E+01 0.104E-13 -.270E+01   -.244E+00 0.000E+00 -.244E+00   0.114E-01 0.328E-13 0.114E-01
   0.130E+01 -.286E-14 0.130E+01   -.113E+01 0.200E-14 -.113E+01   -.160E+00 0.000E+00 -.160E+00   -.427E-04 -.798E-14 -.430E-04
   0.399E+01 -.651E+01 0.257E+01   -.415E+01 0.654E+01 -.243E+01   0.206E+00 -.593E-01 -.138E+00   0.163E-02 -.109E-01 0.798E-02
   0.257E+01 -.651E+01 0.399E+01   -.243E+01 0.654E+01 -.415E+01   -.138E+00 -.593E-01 0.206E+00   0.798E-02 -.109E-01 0.163E-02
   -.778E+01 0.290E-12 0.773E+01   0.796E+01 0.477E-14 -.783E+01   -.116E+00 -.139E-16 0.999E-01   -.839E-02 -.532E-13 0.519E-02
   -.415E+01 -.220E-13 0.397E+01   0.422E+01 0.588E-14 -.414E+01   -.105E+00 -.173E-17 0.163E+00   -.126E-02 -.171E-13 0.414E-02
   -.499E+01 0.115E+02 0.777E+01   0.495E+01 -.117E+02 -.786E+01   0.438E-01 0.223E+00 0.696E-01   -.183E-02 0.747E-02 0.579E-02
   -.278E+01 0.323E+01 0.711E+00   0.263E+01 -.327E+01 -.798E+00   0.169E+00 0.448E-01 0.952E-01   -.819E-02 0.941E-02 0.467E-02
   0.407E+01 0.146E-12 0.407E+01   -.413E+01 -.555E-16 -.413E+01   0.859E-01 0.000E+00 0.859E-01   0.131E-02 -.133E-13 0.131E-02
   0.399E+01 0.651E+01 0.257E+01   -.415E+01 -.654E+01 -.243E+01   0.206E+00 0.593E-01 -.138E+00   0.163E-02 0.109E-01 0.798E-02
   0.257E+01 0.651E+01 0.399E+01   -.243E+01 -.654E+01 -.415E+01   -.138E+00 0.593E-01 0.206E+00   0.798E-02 0.109E-01 0.163E-02
 -----------------------------------------------------------------------------------------------
   0.584E-01 -.239E-12 0.584E-01   0.160E-13 -.888E-14 -.284E-13   -.577E-01 -.187E-15 -.577E-01   -.732E-03 0.584E-13 -.732E-03
 
 
 POSITION                                       TOTAL-FORCE (eV/Angst)
 -----------------------------------------------------------------------------------
      3.95616      4.04353      3.95616         0.001350      0.000000      0.001350
      8.07860      0.00000      8.07860         0.000460      0.000000      0.000460
      2.01538      0.00000      2.01538         0.013253      0.000000      0.013253
      2.03420      2.05778      0.04414        -0.044363     -0.017653     -0.025067
      0.04414      2.05778      2.03420        -0.025067     -0.017653     -0.044363
      4.04440      0.00000      8.05985         0.023712      0.000000      0.017822
      6.09624      0.00000      2.02476        -0.021191      0.000000     -0.025187
      6.07298      2.01440      8.07038         0.012407     -0.014153      0.011346
      4.04503      2.00205      1.98514        -0.018956     -0.039672     -0.003157
      0.03545      4.04353      0.03545        -0.030468      0.000000     -0.030468
      2.03420      6.02928      0.04414        -0.044363      0.017653     -0.025067
      0.04414      6.02928      2.03420        -0.025067      0.017653     -0.044363
      4.03315      4.04353      0.02558         0.006827      0.000000      0.050943
      6.08598      4.04353      2.00203        -0.006019      0.000000     -0.033482
      6.07298      6.07266      8.07038         0.012407      0.014153      0.011346
      4.04503      6.08500      1.98514        -0.018956      0.039672     -0.003157
      8.05985      0.00000      4.04440         0.017822      0.000000      0.023712
      2.02476      0.00000      6.09624        -0.025187      0.000000     -0.021191
      1.98514      2.00205      4.04503        -0.003157     -0.039672     -0.018956
      8.07038      2.01440      6.07298         0.011346     -0.014153      0.012407
      4.05774      0.00000      4.05774        -0.021837      0.000000     -0.021837
      6.06862      0.00000      6.06862         0.009161      0.000000      0.009161
      6.06221      2.01900      4.04324         0.052426     -0.035708      0.010261
      4.04324      2.01900      6.06221         0.010261     -0.035708      0.052426
      0.02558      4.04353      4.03315         0.050943      0.000000      0.006827
      2.00203      4.04353      6.08598        -0.033482      0.000000     -0.006019
      1.98514      6.08500      4.04503        -0.003157      0.039672     -0.018956
      8.07038      6.07266      6.07298         0.011346      0.014153      0.012407
      6.07254      4.04353      6.07254         0.024858      0.000000      0.024858
      6.06221      6.06805      4.04324         0.052426      0.035708      0.010261
      4.04324      6.06805      6.06221         0.010261      0.035708      0.052426
 -----------------------------------------------------------------------------------
    total drift:                               -0.000065      0.000000     -0.000065
 d Force = 0.1161034E-01[-0.160E-03, 0.234E-01]  d Energy = 0.1145359E-01 0.157E-03
 d Force = 0.1820539E+01[ 0.168E+01, 0.196E+01]  d Ewald  = 0.1820463E+01 0.758E-04


--------------------------------------------------------------------------------------------------------


    POTLOK:  cpu time    1.96: real time    1.91


--------------------------------------------------------------------------------------------------------


  FORCES: max atom, RMS     0.064256    0.041716
  FORCE total and by dimension    0.232264    0.052426


--------------------------------------------------------------------------------------------------------


  
 reached required accuracy - stopping structural energy minimisation
     LOOP+:  cpu time  231.93: real time   95.30
    4ORBIT:  cpu time    0.00: real time    0.00

 total amount of memory used by VASP on root node 133132. kBytes
========================================================================

   base      :    30000. kBytes
   nonl-proj :     4690. kBytes
   fftplans  :    30736. kBytes
   grid      :    54743. kBytes
   one-center:       95. kBytes
   wavefun   :    12868. kBytes
 
  
  
 General timing and accounting informations for this job:
 ========================================================
  
                  Total CPU time used (sec):     1792.392
                            User time (sec):     1784.833
                          System time (sec):        7.560
                         Elapsed time (sec):      716.634
  
                   Maximum memory used (kb):           0.
                   Average memory used (kb):           0.
  
                          Minor page faults:       398416
                          Major page faults:            0
                 Voluntary context switches:        12461
