       N       E                     dE             d eps       ncg     rms          rms(c)
RMM:   1     0.224128344722E+03    0.22413E+03   -0.15449E+04   144   0.531E+02
RMM:   2    -0.394594903041E+02   -0.26359E+03   -0.25339E+03   144   0.109E+02
RMM:   3    -0.947826170059E+02   -0.55323E+02   -0.53280E+02   144   0.355E+01
RMM:   4    -0.107104475052E+03   -0.12322E+02   -0.10854E+02   144   0.198E+01
RMM:   5    -0.111357371632E+03   -0.42529E+01   -0.32307E+01   144   0.992E+00
RMM:   6    -0.112793721033E+03   -0.14363E+01   -0.10605E+01   144   0.561E+00
RMM:   7    -0.113246077590E+03   -0.45236E+00   -0.36970E+00   144   0.316E+00
RMM:   8    -0.113406179342E+03   -0.16010E+00   -0.13575E+00   144   0.187E+00
RMM:   9    -0.113489914825E+03   -0.83735E-01   -0.77193E-01   387   0.109E+00
RMM:  10    -0.113500881044E+03   -0.10966E-01   -0.70734E-02   346   0.280E-01
RMM:  11    -0.113501393866E+03   -0.51282E-03   -0.38289E-03   298   0.713E-02
RMM:  12    -0.113501421202E+03   -0.27336E-04   -0.24581E-04   226   0.241E-02    0.536E+00
RMM:  13    -0.112864629339E+03    0.63679E+00   -0.62505E-01   308   0.110E+00    0.327E+00
RMM:  14    -0.112621196639E+03    0.24343E+00   -0.14751E-01   328   0.758E-01    0.128E+00
RMM:  15    -0.112575279524E+03    0.45917E-01   -0.32072E-02   328   0.405E-01    0.148E-01
RMM:  16    -0.112574219342E+03    0.10602E-02   -0.27992E-03   339   0.109E-01    0.455E-02
RMM:  17    -0.112574233494E+03   -0.14152E-04   -0.26172E-04   262   0.408E-02
   1 F= -.11257423E+03 E0= -.11256132E+03  d E =-.387483E-01
