 vasp.5.2.2 15Apr09 complex 
 executed on             LinuxIFC date 2017.03.17  11:37:05
 running on   12 nodes
 distr:  one band on    1 nodes,   12 groups


--------------------------------------------------------------------------------------------------------


 INCAR:
 POTCAR:   PAW_PBE Al 04Jan2001                   
 POTCAR:   PAW_PBE Al 04Jan2001                   
   VRHFIN =Al: s2p1                                                             
   LEXCH  = PE                                                                  
   EATOM  =    53.5387 eV,    3.9350 Ry                                         
                                                                                
   TITEL  = PAW_PBE Al 04Jan2001                                                
   LULTRA =        F    use ultrasoft PP ?                                      
   IUNSCR =        1    unscreen: 0-lin 1-nonlin 2-no                           
   RPACOR =    1.500    partial core radius                                     
   POMASS =   26.982; ZVAL   =    3.000    mass and valenz                      
   RCORE  =    1.900    outmost cutoff radius                                   
   RWIGS  =    2.650; RWIGS  =    1.402    wigner-seitz radius (au A)           
   ENMAX  =  240.300; ENMIN  =  180.225 eV                                      
   ICORE  =        2    local potential                                         
   LCOR   =        T    correct aug charges                                     
   LPAW   =        T    paw PP                                                  
   EAUG   =  291.052                                                            
   DEXC   =    -.041                                                            
   RMAX   =    2.974    core radius for proj-oper                               
   RAUG   =    1.300    factor for augmentation sphere                          
   RDEP   =    1.966    radius for radial grids                                 
   QCUT   =   -4.203; QGAM   =    8.405    optimization parameters              
                                                                                
   Description                                                                  
     l     E      TYP  RCUT    TYP  RCUT                                        
     0   .000     23  1.900                                                     
     0   .000     23  1.900                                                     
     1   .000     23  1.900                                                     
     1  1.000     23  1.900                                                     
     2   .000      7  1.900                                                     
  local pseudopotential read in
  partial core-charges read in
  atomic valenz-charges read in
  non local Contribution for L=           0  read in
    real space projection operators read in
  non local Contribution for L=           0  read in
    real space projection operators read in
  non local Contribution for L=           1  read in
    real space projection operators read in
  non local Contribution for L=           1  read in
    real space projection operators read in
    PAW grid and wavefunctions read in
 
   number of l-projection  operators is LMAX  =           4
   number of lm-projection operators is LMMAX =           8
 

 ----------------------------------------------------------------------------- 
|                                                                             |
|  ADVICE TO THIS USER RUNNING 'VASP/VAMP'   (HEAR YOUR MASTER'S VOICE ...):  |
|                                                                             |
|      You have a (more or less) 'large supercell' and for larger cells       |
|      it might be more efficient to use real space projection operators      |
|      So try LREAL= Auto  in the INCAR   file.                               |
|      Mind: If you want to do a very accurate calculations keep the          |
|      reciprocal projection scheme          (i.e. LREAL=.FALSE.)             |
|                                                                             |
 ----------------------------------------------------------------------------- 

 PAW_PBE Al 04Jan2001                   :
 energy of atom  1       EATOM=  -53.5387
 kinetic energy error for atom=    0.0011 (will be added to EATOM!!)
 
 
 POSCAR: Al31                                    
  positions in direct lattice
  velocities in cartesian coordinates
 exchange correlation table for  LEXCH =        8
   RHO(1)=    0.500       N(1)  =     2000
   RHO(2)=  100.500       N(2)  =     4000

 VTST: version 2.03d, (02/18/09)

 CHAIN: initializing optimizer
 
 OPT: Using VASP Dynamics algorithm
 CHAIN: Read ICHAIN            0
 


--------------------------------------------------------------------------------------------------------


 ion  position               nearest neighbor table
   1  1.000  0.000  1.000-   6 2.82  17 2.82   2 2.85  21 2.85  19 2.85   7 2.85  14 2.85  27 2.85
                             4 2.87  10 2.87  11 2.87   3 2.87
   2  0.248  0.000  0.248-  15 2.83  26 2.83  18 2.83   8 2.83   1 2.85  11 2.86   4 2.86   3 2.86
                            10 2.86  20 2.89  16 2.90   5 2.90
   3  0.248  0.253  0.002-   4 2.81  12 2.82   9 2.82  17 2.85   2 2.86   8 2.86  19 2.86   1 2.87
                            25 2.89   5 2.89  23 2.91
   4  0.002  0.253  0.248-   3 2.81  24 2.82   9 2.82   6 2.85   2 2.86  18 2.86   7 2.86   1 2.87
                            13 2.89  16 2.89  22 2.91
   5  0.501  0.000  0.993-  17 2.79  15 2.79   8 2.79  21 2.82  23 2.85  30 2.85   7 2.87  14 2.87
                             3 2.89  10 2.89   2 2.90   6 2.93
   6  0.757  0.000  0.249-  16 2.79  15 2.79   8 2.79   1 2.82   4 2.85  11 2.85   7 2.87  14 2.87
                            22 2.89  29 2.89  20 2.90   5 2.93
   7  0.751  0.251  0.999-   8 2.80  19 2.83  28 2.85   9 2.85   1 2.85  21 2.85  23 2.86   4 2.86
                             5 2.87   6 2.87  13 2.89  12 2.89
   8  0.507  0.237  0.243-  31 2.61   5 2.79   6 2.79   7 2.80   2 2.83  20 2.83   3 2.86  22 2.86
                            12 2.87  13 2.87  18 3.01
   9  0.001  0.500  0.001-   3 2.82  10 2.82   4 2.82  11 2.82  14 2.85  27 2.85  19 2.85   7 2.85
                            28 2.88  13 2.92  25 2.92
  10  0.248  0.747  0.002-  11 2.81  12 2.82   9 2.82  17 2.85   2 2.86  15 2.86  27 2.86   1 2.87
                            25 2.89   5 2.89  30 2.91
  11  0.002  0.747  0.248-  10 2.81  24 2.82   9 2.82   6 2.85   2 2.86  26 2.86  14 2.86   1 2.87
                            13 2.89  16 2.89  29 2.91
  12  0.495  0.500  0.005-   3 2.82  10 2.82  13 2.86  25 2.86   8 2.87  15 2.87  23 2.89  30 2.89
                            14 2.89   7 2.89  28 2.92  31 3.14
  13  0.745  0.500  0.255-  22 2.82  29 2.82  12 2.86  24 2.86   8 2.87  15 2.87  11 2.89   4 2.89
                            14 2.89   7 2.89   9 2.92  31 3.14
  14  0.751  0.749  0.999-  15 2.80  27 2.83  28 2.85   9 2.85   1 2.85  21 2.85  30 2.86  11 2.86
                             5 2.87   6 2.87  13 2.89  12 2.89
  15  0.507  0.763  0.243-  31 2.61   5 2.79   6 2.79  14 2.80   2 2.83  20 2.83  10 2.86  29 2.86
                            12 2.87  13 2.87  26 3.01
  16  0.993  0.000  0.501-   6 2.79  26 2.79  18 2.79  21 2.82  22 2.85  29 2.85  19 2.87  27 2.87
                            11 2.89   4 2.89   2 2.90  17 2.93
  17  0.249  0.000  0.757-   5 2.79  26 2.79  18 2.79   1 2.82   3 2.85  10 2.85  19 2.87  27 2.87
                            23 2.89  30 2.89  20 2.90  16 2.93
  18  0.243  0.237  0.507-  31 2.61  16 2.79  17 2.79  19 2.80   2 2.83  20 2.83   4 2.86  23 2.86
                            24 2.87  25 2.87   8 3.01
  19  0.999  0.251  0.751-  18 2.80   7 2.83  28 2.85   9 2.85   1 2.85  21 2.85  22 2.86   3 2.86
                            16 2.87  17 2.87  25 2.89  24 2.89
  20  0.502  0.000  0.502-  15 2.83  26 2.83  18 2.83   8 2.83  21 2.85  23 2.86  22 2.86  29 2.86
                            30 2.86   2 2.89  17 2.90   6 2.90
  21  0.750  0.000  0.750-   5 2.82  16 2.82  20 2.85   1 2.85  19 2.85   7 2.85  14 2.85  27 2.85
                            23 2.87  22 2.87  29 2.87  30 2.87
  22  0.748  0.253  0.502-  23 2.81  13 2.82  28 2.82  16 2.85  20 2.86   8 2.86  19 2.86  21 2.87
                            24 2.89   6 2.89   4 2.91
  23  0.502  0.253  0.748-  22 2.81  25 2.82  28 2.82   5 2.85  20 2.86  18 2.86   7 2.86  21 2.87
                            12 2.89  17 2.89   3 2.91
  24  0.005  0.500  0.495-   4 2.82  11 2.82  25 2.86  13 2.86  18 2.87  26 2.87  22 2.89  29 2.89
                            27 2.89  19 2.89  28 2.92  31 3.14
  25  0.255  0.500  0.745-  23 2.82  30 2.82  24 2.86  12 2.86  18 2.87  26 2.87   3 2.89  10 2.89
                            27 2.89  19 2.89   9 2.92  31 3.14
  26  0.243  0.763  0.507-  31 2.61  16 2.79  17 2.79  27 2.80   2 2.83  20 2.83  11 2.86  30 2.86
                            24 2.87  25 2.87  15 3.01
  27  0.999  0.749  0.751-  26 2.80  14 2.83  28 2.85   9 2.85   1 2.85  21 2.85  29 2.86  10 2.86
                            16 2.87  17 2.87  25 2.89  24 2.89
  28  0.749  0.500  0.749-  22 2.82  23 2.82  29 2.82  30 2.82  27 2.85  14 2.85  19 2.85   7 2.85
                             9 2.88  24 2.92  12 2.92
  29  0.748  0.747  0.502-  30 2.81  13 2.82  28 2.82  16 2.85  20 2.86  15 2.86  27 2.86  21 2.87
                            24 2.89   6 2.89  11 2.91
  30  0.502  0.747  0.748-  29 2.81  25 2.82  28 2.82   5 2.85  20 2.86  26 2.86  14 2.86  21 2.87
                            12 2.89  17 2.89  10 2.91
  31  0.375  0.500  0.375-   8 2.61  18 2.61  15 2.61  26 2.61  24 3.14  12 3.14  25 3.14  13 3.14

 
  LATTYP: Found a simple cubic cell.
 ALAT       =     8.0870520000
  
  Lattice vectors:
  
 A1 = (   8.0870520000,   0.0000000000,   0.0000000000)
 A2 = (   0.0000000000,   8.0870520000,   0.0000000000)
 A3 = (   0.0000000000,   0.0000000000,   8.0870520000)
 Subroutine PRICEL returns:
 Original cell was already a primitive cell.
 

Analysis of symmetry for initial positions (statically):

 Routine SETGRP: Setting up the symmetry group for a 
 simple cubic supercell.


 Subroutine GETGRP returns: Found  8 space group operations
 (whereof  4 operations were pure point group operations)
 out of a pool of 48 trial point group operations.


The static configuration has the point symmetry C_2v.
 The point group associated with its full space group is D_2h.

Analysis of symmetry for dynamics (positions and initial velocities):

 Subroutine DYNSYM returns: Found  8 space group operations
 (whereof  4 operations were pure point group operations)
 out of a pool of  8 trial space group operations
 (whereof  4 operations were pure point group operations)
 and found also     1 'primitive' translations


The dynamic configuration has the point symmetry C_2v.
 The point group associated with its full space group is D_2h.

Analysis of constrained symmetry for selective dynamics:

 Subroutine DYNSYM returns: Found  8 space group operations
 (whereof  4 operations were pure point group operations)
 out of a pool of  8 trial space group operations
 (whereof  4 operations were pure point group operations)
 and found also     1 'primitive' translations


The constrained configuration has the point symmetry C_2v.
 The point group associated with its full space group is D_2h.
 
 
 KPOINTS: Automatic kpoint scheme                 

Automatic generation of k-mesh.
 
 Subroutine IBZKPT returns following result:
 ===========================================
 
 Found      2 irreducible k-points:
 
 Following reciprocal coordinates:
            Coordinates               Weight
  0.250000  0.250000  0.250000      4.000000
 -0.250000  0.250000  0.250000      4.000000
 
 Following cartesian coordinates:
            Coordinates               Weight
  0.030914  0.030914  0.030914      4.000000
 -0.030914  0.030914  0.030914      4.000000
 
 
 Subroutine IBZKPT_HF returns following result:
 ==============================================
 
 Found      8 k-points in 1st BZ
 the following      8 k-points will be used (e.g. in the exchange kernel)
 Following reciprocal coordinates:   # in IRBZ
  0.250000  0.250000  0.250000       1
 -0.250000  0.250000  0.250000       2
  0.250000 -0.250000  0.250000       1
 -0.250000 -0.250000 -0.250000       1
 -0.250000  0.250000 -0.250000       1
  0.250000 -0.250000 -0.250000       2
 -0.250000 -0.250000  0.250000       2
  0.250000  0.250000 -0.250000       2


--------------------------------------------------------------------------------------------------------




 Dimension of arrays:
   k-points           NKPTS =      2   k-points in BZ     NKDIM =      2   number of bands    NBANDS=     72
   number of dos      NEDOS =    301   number of ions     NIONS =     31
   non local maximal  LDIM  =      4   non local SUM 2l+1 LMDIM =      8
   total plane-waves  NPLWV = 110592
   max r-space proj   IRMAX =      1   max aug-charges    IRDMAX=   8337
   dimension x,y,z NGX =    48 NGY =   48 NGZ =   48
   dimension x,y,z NGXF=    96 NGYF=   96 NGZF=   96
   support grid    NGXF=    96 NGYF=   96 NGZF=   96
   ions per type =              31
 NGX,Y,Z   is equivalent  to a cutoff of   9.87,  9.87,  9.87 a.u.
 NGXF,Y,Z  is equivalent  to a cutoff of  19.73, 19.73, 19.73 a.u.


 I would recommend the setting:
   dimension x,y,z NGX =    46 NGY =   46 NGZ =   46
 SYSTEM =  unknown system                          
 POSCAR =  Al31                                    

 Startparameter for this run:
   NWRITE =      2    write-flag & timer
   PREC   = accura    medium, high low
   ISTART =      0    job   : 0-new  1-cont  2-samecut
   ICHARG =      2    charge: 1-file 2-atom 10-const
   ISPIN  =      1    spin polarized calculation?
   LNONCOLLINEAR =      F non collinear calculations
   LSORBIT =      F    spin-orbit coupling
   INIWAV =      1    electr: 0-lowe 1-rand  2-diag
   LASPH  =      F    aspherical Exc in radial PAW
   METAGGA=      F    non-selfconsistent MetaGGA calc.

 Electronic Relaxation 1
   ENCUT  =  300.0 eV  22.05 Ry    4.70 a.u.  11.42 11.42 11.42*2*pi/ulx,y,z
   ENINI  =  300.0     initial cutoff
   ENAUG  =  291.1 eV  augmentation charge cutoff
   NELM   =     60;   NELMIN=  2; NELMDL=  0     # of ELM steps 
   EDIFF  = 0.1E-05   stopping-criterion for ELM
   LREAL  =      F    real-space projection
   LCOMPAT=      F    compatible to vasp.4.4
   LREAL_COMPAT= F    compatible to vasp.4.5.1-3
   GGA_COMPAT  = T    GGA compatible to vasp.4.4-vasp.4.6
   LMAXPAW     = -100 max onsite density
   LMAXMIX     =    2 max onsite mixed and CHGCAR
   VOSKOWN=      0    Vosko Wilk Nusair interpolation
   ROPT   =    0.00000
 Ionic relaxation
   EDIFFG = 0.5E-01   stopping-criterion for IOM
   NSW    =    382    number of steps for IOM
   NBLOCK =      1;   KBLOCK =    191    inner block; outer block 
   IBRION =      5    ionic relax: 0-MD 1-quasi-New 2-CG
   NFREE  =      2    steps in history (QN), initial steepest desc. (CG)
   ISIF   =      2    stress and relaxation
   IWAVPR =     11    prediction:  0-non 1-charg 2-wave 3-comb
   ISYM   =      2    0-nonsym 1-usesym 2-fastsym
   LCORR  =      T    Harris-Foulkes like correction to forces

   POTIM  = 0.5000    time-step for ionic-motion
   TEIN   =    0.0    initial temperature
   TEBEG  =    0.0;   TEEND  =   0.0 temperature during run
   SMASS  =  -3.00    Nose mass-parameter (am)
   estimated Nose-frequenzy (Omega)   =  0.10E-29 period in steps =****** mass=  -0.149E-26a.u.
   NPACO  =    256;   APACO  = 16.0  distance and # of slots for P.C.
   PSTRESS=    0.0 pullay stress

  Mass of Ions in am
   POMASS =  26.98
  Ionic Valenz
   ZVAL   =   3.00
  Atomic Wigner-Seitz radii
   RWIGS  =  -1.00
   NELECT =      93.0000    total number of electrons
   NUPDOWN=      -1.0000    fix difference up-down

 DOS related values:
   EMIN   =  10.00;   EMAX   =-10.00  energy-range for DOS
   EFERMI =   0.00
   ISMEAR =     1;   SIGMA  =   0.20  broadening in eV -4-tet -1-fermi 0-gaus

 Electronic relaxation 2 (details)
   IALGO  =     48    algorithm
   LDIAG  =      T    sub-space diagonalisation
   IMIX   =      4    mixing-type and parameters
     AMIX     =   0.40;   BMIX     =  1.00
     AMIX_MAG =   1.60;   BMIX_MAG =  1.00
     AMIN     =   0.10
     WC   =   100.;   INIMIX=   1;  MIXPRE=   1

 Intra band minimization:
   WEIMIN = 0.0010     energy-eigenvalue tresh-hold
   EBREAK =  0.40E-08  absolut break condition
   DEPER  =   0.30     relativ break condition  

   TIME   =   0.40     timestep for ELM

  volume/ion in A,a.u.               =      17.06       115.13
  Fermi-wavevector in a.u.,A,eV,Ry     =   0.917161  1.733183 11.445007  0.841184
  Thomas-Fermi vector in A             =   2.042098
 
 Write flags
   LWAVE  =      F    write WAVECAR
   LCHARG =      F    write CHGCAR
   LVTOT  =      F    write LOCPOT, local potential
   LELF   =      F    write electronic localiz. function (ELF)
   LORBIT =      0    0 simple, 1 ext, 2 COOP (PROOUT)


 Dipole corrections
   LMONO  =      F    monopole corrections only (constant potential shift)
   LDIPOL =      F    correct potential (dipole corrections)
   IDIPOL =      0    1-x, 2-y, 3-z, 4-all directions 
   EPSILON=  1.0000000 bulk dielectric constant

 Exchange correlation treatment:
   GGA     =    --    GGA type
   LEXCH   =     8    internal setting for exchange type
   VOSKOWN=      0    Vosko Wilk Nusair interpolation
   LHFCALC =     F    Hartree Fock is set to
   LHFONE  =     F    Hartree Fock one center treatment
   AEXX    =    0.0000 exact exchange contribution

 Linear response parameters
   LEPSILON=     F    determine dielectric tensor
   LRPA    =     F    only Hartree local field effects (RPA)
   LNABLA  =     F    use nabla operator in PAW spheres
   LVEL    =     F    velocity operator in full k-point grid
   LINTERFAST=   F  fast interpolation
   KINTER  =     0    interpolate to denser k-point grid
   CSHIFT  =0.1000    complex shift for real part using Kramers Kronig
   OMEGAMAX=  -1.0    maximum frequency

 Orbital magnetization related:
   ORBITALMAG=     F  switch on orbital magnetization
   LCHIMAG   =     F  perturbation theory with respect to B field



--------------------------------------------------------------------------------------------------------


 finite differences
   using selective dynamics as specified on POSCAR
 charge density and potential will be updated during run
 non-spin polarized calculation
 RMM-DIIS sequential band-by-band
 perform sub-space diagonalisation
    before iterative eigenvector-optimisation
 modified Broyden-mixing scheme, WC =      100.0
 initial mixing is a Kerker type mixing with AMIX =  0.4000 and BMIX =      1.0000
 Hartree-type preconditioning will be used
 using additional bands           25
 reciprocal scheme for non local part
 use partial core corrections
 calculate Harris-corrections to forces 
   (improved forces if not selfconsistent)
 use gradient corrections 
 use of overlap-Matrix (Vanderbilt PP)
 Methfessel and Paxton  Order N= 1 SIGMA  =   0.20


--------------------------------------------------------------------------------------------------------


  energy-cutoff  :      300.00
  volume of cell :      528.90
      direct lattice vectors                 reciprocal lattice vectors
     8.087052000  0.000000000  0.000000000     0.123654454  0.000000000  0.000000000
     0.000000000  8.087052000  0.000000000     0.000000000  0.123654454  0.000000000
     0.000000000  0.000000000  8.087052000     0.000000000  0.000000000  0.123654454

  length of vectors
     8.087052000  8.087052000  8.087052000     0.123654454  0.123654454  0.123654454


 
 k-points in units of 2pi/SCALE and weight: Automatic kpoint scheme                 
   0.03091361  0.03091361  0.03091361       0.500
  -0.03091361  0.03091361  0.03091361       0.500
 
 k-points in reciprocal lattice and weights: Automatic kpoint scheme                 
   0.25000000  0.25000000  0.25000000       0.500
  -0.25000000  0.25000000  0.25000000       0.500
 
 position of ions in fractional coordinates (direct lattice) 
   0.99969100  0.00000000  0.99969100
   0.24846600  0.00000000  0.24846600
   0.24812100  0.25336800  0.00238000
   0.00238000  0.25336800  0.24812100
   0.50053500  0.00000000  0.99307300
   0.75692600  0.00000000  0.24946600
   0.75133600  0.25081000  0.99866300
   0.50656300  0.23697200  0.24343500
   0.00091700  0.50000000  0.00091700
   0.24812100  0.74663200  0.00238000
   0.00238000  0.74663200  0.24812100
   0.49482900  0.50000000  0.00542100
   0.74458100  0.50000000  0.25516900
   0.75133600  0.74918900  0.99866300
   0.50656300  0.76302900  0.24343500
   0.99307300  0.00000000  0.50053500
   0.24946600  0.00000000  0.75692600
   0.24343500  0.23697200  0.50656300
   0.99866300  0.25081000  0.75133600
   0.50153500  0.00000000  0.50153500
   0.75030800  0.00000000  0.75030800
   0.74762200  0.25336600  0.50188000
   0.50188000  0.25336600  0.74762200
   0.00542100  0.50000000  0.49482900
   0.25516900  0.50000000  0.74458100
   0.24343500  0.76302900  0.50656300
   0.99866300  0.74918900  0.75133600
   0.74908500  0.50000000  0.74908500
   0.74762200  0.74663400  0.50188000
   0.50188000  0.74663400  0.74762200
   0.37500000  0.50000000  0.37500000
 
 position of ions in cartesian coordinates  (Angst):
   8.08455310  0.00000000  8.08455310
   2.00935746  0.00000000  2.00935746
   2.00656743  2.04900019  0.01924718
   0.01924718  2.04900019  2.00656743
   4.04785257  0.00000000  8.03103299
   6.12129992  0.00000000  2.01744451
   6.07609330  2.02831351  8.07623961
   4.09660132  1.91640489  1.96867150
   0.00741583  4.04352600  0.00741583
   2.00656743  6.03805181  0.01924718
   0.01924718  6.03805181  2.00656743
   4.00170785  4.04352600  0.04383991
   6.02146527  4.04352600  2.06356497
   6.07609330  6.05873040  8.07623961
   4.09660132  6.17065520  1.96867150
   8.03103299  0.00000000  4.04785257
   2.01744451  0.00000000  6.12129992
   1.96867150  1.91640489  4.09660132
   8.07623961  2.02831351  6.07609330
   4.05593962  0.00000000  4.05593962
   6.06777981  0.00000000  6.06777981
   6.04605799  2.04898402  4.05872966
   4.05872966  2.04898402  6.04605799
   0.04383991  4.04352600  4.00170785
   2.06356497  4.04352600  6.02146527
   1.96867150  6.17065520  4.09660132
   8.07623961  6.05873040  6.07609330
   6.05788935  4.04352600  6.05788935
   6.04605799  6.03806798  4.05872966
   4.05872966  6.03806798  6.04605799
   3.03264450  4.04352600  3.03264450
 


--------------------------------------------------------------------------------------------------------


 k-point  1 :  0.25000.25000.2500  plane waves:    6238
 k-point  2 :  -.25000.25000.2500  plane waves:    6238

 maximum and minimum number of plane-waves per node :    6238   6238

 maximum number of plane-waves:    6238
 maximal index in each direction: 
   IXMAX= 11   IYMAX= 11   IZMAX= 11
   IXMIN=-11   IYMIN=-11   IZMIN=-11

 NGX is ok and might be reduce to  46
 NGY is ok and might be reduce to  46
 NGZ is ok and might be reduce to  46

 serial   3D FFT for wavefunctions
 parallel 3D FFT for charge:
    minimum data exchange during FFTs selected (reduces bandwidth)


 total amount of memory used by VASP on root node  59241. kBytes
========================================================================

   base      :    30000. kBytes
   nonl-proj :     3893. kBytes
   fftplans  :     2983. kBytes
   grid      :    21024. kBytes
   one-center:       95. kBytes
   wavefun   :     1246. kBytes
 
 Broyden mixing: mesh for mixing (old mesh)
   NGX = 23   NGY = 23   NGZ = 23
  (NGX  = 96   NGY  = 96   NGZ  = 96)
  gives a total of  12167 points

 initial charge density was supplied:
 charge density of overlapping atoms calculated
 number of electron   93.0000000 magnetization 
 keeping initial charge density in first step


--------------------------------------------------------------------------------------------------------


 Maximum index for augmentation-charges          552 (set IRDMAX)


--------------------------------------------------------------------------------------------------------


 First call to EWALD:  gamma=   0.219
 Maximum number of real-space cells 3x 3x 3
 Maximum number of reciprocal cells 3x 3x 3

    FEWALD:  cpu time    0.01: real time    0.01
   RESPFUN:  cpu time    0.00: real time    0.00


----------------------------------------- Iteration    1(   1)  ---------------------------------------


    POTLOK:  cpu time    0.15: real time    0.15
    SETDIJ:  cpu time    0.01: real time    0.01
    EDDIAG:  cpu time    0.30: real time    0.30
  RMM-DIIS:  cpu time    0.68: real time    0.68
    ORTHCH:  cpu time    0.02: real time    0.02
       DOS:  cpu time    0.00: real time    0.00
    --------------------------------------------
      LOOP:  cpu time    1.16: real time    1.16

 eigenvalue-minimisations  :   144
 total energy-change (2. order) : 0.2383601E+03  (-0.1563887E+04)
 number of electron   93.0000000 magnetization 
 augmentation part    93.0000000 magnetization 

 Free energy of the ion-electron system (eV)
  ---------------------------------------------------
  alpha Z        PSCENC =        -6.10292983
  Ewald energy   TEWEN  =     -2233.45052967
  -1/2 Hartree   DENC   =       -14.87170164
  -exchange  EXHF       =         0.00000000
  -V(xc)+E(xc)   XCENC  =      -814.89415827
  PAW double counting   =      1102.18190231     -111.56847430
  entropy T*S    EENTRO =        -0.00384052
  eigenvalues    EBANDS =       657.40346588
  atomic energy  EATOM  =      1659.66634407
  ---------------------------------------------------
  free energy    TOTEN  =       238.36007802 eV

  energy without entropy =      238.36391854  energy(sigma->0) =      238.36135819


--------------------------------------------------------------------------------------------------------




----------------------------------------- Iteration    1(   2)  ---------------------------------------


    EDDIAG:  cpu time    0.30: real time    0.30
  RMM-DIIS:  cpu time    0.68: real time    0.68
    ORTHCH:  cpu time    0.02: real time    0.02
       DOS:  cpu time    0.00: real time    0.00
    --------------------------------------------
      LOOP:  cpu time    1.00: real time    1.00

 eigenvalue-minimisations  :   144
 total energy-change (2. order) :-0.2764609E+03  (-0.2645061E+03)
 number of electron   93.0000000 magnetization 
 augmentation part    93.0000000 magnetization 

 Free energy of the ion-electron system (eV)
  ---------------------------------------------------
  alpha Z        PSCENC =        -6.10292983
  Ewald energy   TEWEN  =     -2233.45052967
  -1/2 Hartree   DENC   =       -14.87170164
  -exchange  EXHF       =         0.00000000
  -V(xc)+E(xc)   XCENC  =      -814.89415827
  PAW double counting   =      1102.18190231     -111.56847430
  entropy T*S    EENTRO =         0.03971037
  eigenvalues    EBANDS =       380.89899191
  atomic energy  EATOM  =      1659.66634407
  ---------------------------------------------------
  free energy    TOTEN  =       -38.10084506 eV

  energy without entropy =      -38.14055543  energy(sigma->0) =      -38.11408185


--------------------------------------------------------------------------------------------------------




----------------------------------------- Iteration    1(   3)  ---------------------------------------


    EDDIAG:  cpu time    0.30: real time    0.30
  RMM-DIIS:  cpu time    0.67: real time    0.67
    ORTHCH:  cpu time    0.02: real time    0.02
       DOS:  cpu time    0.00: real time    0.00
    --------------------------------------------
      LOOP:  cpu time    0.99: real time    0.99

 eigenvalue-minimisations  :   144
 total energy-change (2. order) :-0.5764266E+02  (-0.5619418E+02)
 number of electron   93.0000000 magnetization 
 augmentation part    93.0000000 magnetization 

 Free energy of the ion-electron system (eV)
  ---------------------------------------------------
  alpha Z        PSCENC =        -6.10292983
  Ewald energy   TEWEN  =     -2233.45052967
  -1/2 Hartree   DENC   =       -14.87170164
  -exchange  EXHF       =         0.00000000
  -V(xc)+E(xc)   XCENC  =      -814.89415827
  PAW double counting   =      1102.18190231     -111.56847430
  entropy T*S    EENTRO =        -0.05540230
  eigenvalues    EBANDS =       323.35144922
  atomic energy  EATOM  =      1659.66634407
  ---------------------------------------------------
  free energy    TOTEN  =       -95.74350041 eV

  energy without entropy =      -95.68809811  energy(sigma->0) =      -95.72503298


--------------------------------------------------------------------------------------------------------




----------------------------------------- Iteration    1(   4)  ---------------------------------------


    EDDIAG:  cpu time    0.30: real time    0.30
  RMM-DIIS:  cpu time    0.67: real time    0.67
    ORTHCH:  cpu time    0.02: real time    0.02
       DOS:  cpu time    0.00: real time    0.00
    --------------------------------------------
      LOOP:  cpu time    0.99: real time    0.99

 eigenvalue-minimisations  :   144
 total energy-change (2. order) :-0.1276904E+02  (-0.1154116E+02)
 number of electron   93.0000000 magnetization 
 augmentation part    93.0000000 magnetization 

 Free energy of the ion-electron system (eV)
  ---------------------------------------------------
  alpha Z        PSCENC =        -6.10292983
  Ewald energy   TEWEN  =     -2233.45052967
  -1/2 Hartree   DENC   =       -14.87170164
  -exchange  EXHF       =         0.00000000
  -V(xc)+E(xc)   XCENC  =      -814.89415827
  PAW double counting   =      1102.18190231     -111.56847430
  entropy T*S    EENTRO =        -0.01162594
  eigenvalues    EBANDS =       310.53862929
  atomic energy  EATOM  =      1659.66634407
  ---------------------------------------------------
  free energy    TOTEN  =      -108.51254398 eV

  energy without entropy =     -108.50091804  energy(sigma->0) =     -108.50866867


--------------------------------------------------------------------------------------------------------




----------------------------------------- Iteration    1(   5)  ---------------------------------------


    EDDIAG:  cpu time    0.30: real time    0.30
  RMM-DIIS:  cpu time    0.67: real time    0.67
    ORTHCH:  cpu time    0.02: real time    0.02
       DOS:  cpu time    0.00: real time    0.00
    --------------------------------------------
      LOOP:  cpu time    0.99: real time    0.99

 eigenvalue-minimisations  :   144
 total energy-change (2. order) :-0.4315516E+01  (-0.3274997E+01)
 number of electron   93.0000000 magnetization 
 augmentation part    93.0000000 magnetization 

 Free energy of the ion-electron system (eV)
  ---------------------------------------------------
  alpha Z        PSCENC =        -6.10292983
  Ewald energy   TEWEN  =     -2233.45052967
  -1/2 Hartree   DENC   =       -14.87170164
  -exchange  EXHF       =         0.00000000
  -V(xc)+E(xc)   XCENC  =      -814.89415827
  PAW double counting   =      1102.18190231     -111.56847430
  entropy T*S    EENTRO =        -0.01457052
  eigenvalues    EBANDS =       306.22605738
  atomic energy  EATOM  =      1659.66634407
  ---------------------------------------------------
  free energy    TOTEN  =      -112.82806048 eV

  energy without entropy =     -112.81348995  energy(sigma->0) =     -112.82320363


--------------------------------------------------------------------------------------------------------




----------------------------------------- Iteration    1(   6)  ---------------------------------------


    EDDIAG:  cpu time    0.30: real time    0.30
  RMM-DIIS:  cpu time    0.67: real time    0.67
    ORTHCH:  cpu time    0.02: real time    0.02
       DOS:  cpu time    0.00: real time    0.00
    --------------------------------------------
      LOOP:  cpu time    0.99: real time    0.99

 eigenvalue-minimisations  :   144
 total energy-change (2. order) :-0.1380782E+01  (-0.1036634E+01)
 number of electron   93.0000000 magnetization 
 augmentation part    93.0000000 magnetization 

 Free energy of the ion-electron system (eV)
  ---------------------------------------------------
  alpha Z        PSCENC =        -6.10292983
  Ewald energy   TEWEN  =     -2233.45052967
  -1/2 Hartree   DENC   =       -14.87170164
  -exchange  EXHF       =         0.00000000
  -V(xc)+E(xc)   XCENC  =      -814.89415827
  PAW double counting   =      1102.18190231     -111.56847430
  entropy T*S    EENTRO =        -0.02868799
  eigenvalues    EBANDS =       304.85939268
  atomic energy  EATOM  =      1659.66634407
  ---------------------------------------------------
  free energy    TOTEN  =      -114.20884264 eV

  energy without entropy =     -114.18015465  energy(sigma->0) =     -114.19927998


--------------------------------------------------------------------------------------------------------




----------------------------------------- Iteration    1(   7)  ---------------------------------------


    EDDIAG:  cpu time    0.30: real time    0.30
  RMM-DIIS:  cpu time    0.68: real time    0.68
    ORTHCH:  cpu time    0.02: real time    0.02
       DOS:  cpu time    0.00: real time    0.00
    --------------------------------------------
      LOOP:  cpu time    0.99: real time    1.00

 eigenvalue-minimisations  :   144
 total energy-change (2. order) :-0.4553453E+00  (-0.3511295E+00)
 number of electron   93.0000000 magnetization 
 augmentation part    93.0000000 magnetization 

 Free energy of the ion-electron system (eV)
  ---------------------------------------------------
  alpha Z        PSCENC =        -6.10292983
  Ewald energy   TEWEN  =     -2233.45052967
  -1/2 Hartree   DENC   =       -14.87170164
  -exchange  EXHF       =         0.00000000
  -V(xc)+E(xc)   XCENC  =      -814.89415827
  PAW double counting   =      1102.18190231     -111.56847430
  entropy T*S    EENTRO =        -0.04354216
  eigenvalues    EBANDS =       304.41890153
  atomic energy  EATOM  =      1659.66634407
  ---------------------------------------------------
  free energy    TOTEN  =      -114.66418796 eV

  energy without entropy =     -114.62064580  energy(sigma->0) =     -114.64967390


--------------------------------------------------------------------------------------------------------




----------------------------------------- Iteration    1(   8)  ---------------------------------------


    EDDIAG:  cpu time    0.30: real time    0.30
  RMM-DIIS:  cpu time    0.67: real time    0.67
    ORTHCH:  cpu time    0.02: real time    0.02
       DOS:  cpu time    0.00: real time    0.00
    --------------------------------------------
      LOOP:  cpu time    0.99: real time    0.99

 eigenvalue-minimisations  :   144
 total energy-change (2. order) :-0.1620284E+00  (-0.1273581E+00)
 number of electron   93.0000000 magnetization 
 augmentation part    93.0000000 magnetization 

 Free energy of the ion-electron system (eV)
  ---------------------------------------------------
  alpha Z        PSCENC =        -6.10292983
  Ewald energy   TEWEN  =     -2233.45052967
  -1/2 Hartree   DENC   =       -14.87170164
  -exchange  EXHF       =         0.00000000
  -V(xc)+E(xc)   XCENC  =      -814.89415827
  PAW double counting   =      1102.18190231     -111.56847430
  entropy T*S    EENTRO =        -0.04832021
  eigenvalues    EBANDS =       304.26165116
  atomic energy  EATOM  =      1659.66634407
  ---------------------------------------------------
  free energy    TOTEN  =      -114.82621638 eV

  energy without entropy =     -114.77789618  energy(sigma->0) =     -114.81010965


--------------------------------------------------------------------------------------------------------




----------------------------------------- Iteration    1(   9)  ---------------------------------------


    EDDIAG:  cpu time    0.30: real time    0.30
  RMM-DIIS:  cpu time    1.31: real time    1.31
    ORTHCH:  cpu time    0.02: real time    0.02
       DOS:  cpu time    0.00: real time    0.00
    --------------------------------------------
      LOOP:  cpu time    1.63: real time    1.63

 eigenvalue-minimisations  :   316
 total energy-change (2. order) :-0.7303146E-01  (-0.6429437E-01)
 number of electron   93.0000000 magnetization 
 augmentation part    93.0000000 magnetization 

 Free energy of the ion-electron system (eV)
  ---------------------------------------------------
  alpha Z        PSCENC =        -6.10292983
  Ewald energy   TEWEN  =     -2233.45052967
  -1/2 Hartree   DENC   =       -14.87170164
  -exchange  EXHF       =         0.00000000
  -V(xc)+E(xc)   XCENC  =      -814.89415827
  PAW double counting   =      1102.18190231     -111.56847430
  entropy T*S    EENTRO =        -0.05118096
  eigenvalues    EBANDS =       304.19148045
  atomic energy  EATOM  =      1659.66634407
  ---------------------------------------------------
  free energy    TOTEN  =      -114.89924784 eV

  energy without entropy =     -114.84806689  energy(sigma->0) =     -114.88218752


--------------------------------------------------------------------------------------------------------




----------------------------------------- Iteration    1(  10)  ---------------------------------------


    EDDIAG:  cpu time    0.30: real time    0.30
  RMM-DIIS:  cpu time    1.33: real time    1.33
    ORTHCH:  cpu time    0.02: real time    0.02
       DOS:  cpu time    0.00: real time    0.00
    --------------------------------------------
      LOOP:  cpu time    1.65: real time    1.65

 eigenvalue-minimisations  :   313
 total energy-change (2. order) :-0.1547846E-01  (-0.1165899E-01)
 number of electron   93.0000000 magnetization 
 augmentation part    93.0000000 magnetization 

 Free energy of the ion-electron system (eV)
  ---------------------------------------------------
  alpha Z        PSCENC =        -6.10292983
  Ewald energy   TEWEN  =     -2233.45052967
  -1/2 Hartree   DENC   =       -14.87170164
  -exchange  EXHF       =         0.00000000
  -V(xc)+E(xc)   XCENC  =      -814.89415827
  PAW double counting   =      1102.18190231     -111.56847430
  entropy T*S    EENTRO =        -0.05184772
  eigenvalues    EBANDS =       304.17666875
  atomic energy  EATOM  =      1659.66634407
  ---------------------------------------------------
  free energy    TOTEN  =      -114.91472630 eV

  energy without entropy =     -114.86287858  energy(sigma->0) =     -114.89744373


--------------------------------------------------------------------------------------------------------




----------------------------------------- Iteration    1(  11)  ---------------------------------------


    EDDIAG:  cpu time    0.30: real time    0.30
  RMM-DIIS:  cpu time    1.19: real time    1.19
    ORTHCH:  cpu time    0.02: real time    0.02
       DOS:  cpu time    0.00: real time    0.00
    --------------------------------------------
      LOOP:  cpu time    1.51: real time    1.51

 eigenvalue-minimisations  :   293
 total energy-change (2. order) :-0.7886905E-03  (-0.4237421E-03)
 number of electron   93.0000000 magnetization 
 augmentation part    93.0000000 magnetization 

 Free energy of the ion-electron system (eV)
  ---------------------------------------------------
  alpha Z        PSCENC =        -6.10292983
  Ewald energy   TEWEN  =     -2233.45052967
  -1/2 Hartree   DENC   =       -14.87170164
  -exchange  EXHF       =         0.00000000
  -V(xc)+E(xc)   XCENC  =      -814.89415827
  PAW double counting   =      1102.18190231     -111.56847430
  entropy T*S    EENTRO =        -0.05186022
  eigenvalues    EBANDS =       304.17589256
  atomic energy  EATOM  =      1659.66634407
  ---------------------------------------------------
  free energy    TOTEN  =      -114.91551499 eV

  energy without entropy =     -114.86365477  energy(sigma->0) =     -114.89822825


--------------------------------------------------------------------------------------------------------




----------------------------------------- Iteration    1(  12)  ---------------------------------------


    EDDIAG:  cpu time    0.30: real time    0.30
  RMM-DIIS:  cpu time    1.11: real time    1.12
    ORTHCH:  cpu time    0.02: real time    0.02
       DOS:  cpu time    0.00: real time    0.00
    CHARGE:  cpu time    0.19: real time    0.19
    MIXING:  cpu time    0.00: real time    0.00
    --------------------------------------------
      LOOP:  cpu time    1.62: real time    1.64

 eigenvalue-minimisations  :   261
 total energy-change (2. order) :-0.1068219E-04  (-0.7586916E-05)
 number of electron   92.9999998 magnetization 
 augmentation part    -1.1461304 magnetization 

 Broyden mixing:
  rms(total) = 0.54508E+00    rms(broyden)= 0.54506E+00
  rms(prec ) = 0.86695E+00
  weight for this iteration     100.00

 Free energy of the ion-electron system (eV)
  ---------------------------------------------------
  alpha Z        PSCENC =        -6.10292983
  Ewald energy   TEWEN  =     -2233.45052967
  -1/2 Hartree   DENC   =       -14.87170164
  -exchange  EXHF       =         0.00000000
  -V(xc)+E(xc)   XCENC  =      -814.89415827
  PAW double counting   =      1102.18190231     -111.56847430
  entropy T*S    EENTRO =        -0.05185967
  eigenvalues    EBANDS =       304.17588133
  atomic energy  EATOM  =      1659.66634407
  ---------------------------------------------------
  free energy    TOTEN  =      -114.91552568 eV

  energy without entropy =     -114.86366601  energy(sigma->0) =     -114.89823912


--------------------------------------------------------------------------------------------------------




----------------------------------------- Iteration    1(  13)  ---------------------------------------


    POTLOK:  cpu time    0.14: real time    0.14
    SETDIJ:  cpu time    0.01: real time    0.01
    EDDIAG:  cpu time    0.30: real time    0.30
  RMM-DIIS:  cpu time    1.19: real time    1.19
    ORTHCH:  cpu time    0.02: real time    0.02
       DOS:  cpu time    0.00: real time    0.00
    CHARGE:  cpu time    0.18: real time    0.18
    MIXING:  cpu time    0.00: real time    0.00
    --------------------------------------------
      LOOP:  cpu time    1.85: real time    1.85

 eigenvalue-minimisations  :   288
 total energy-change (2. order) : 0.5979623E+00  (-0.4918424E-01)
 number of electron   92.9999998 magnetization 
 augmentation part    -1.1597688 magnetization 

 Broyden mixing:
  rms(total) = 0.33303E+00    rms(broyden)= 0.33303E+00
  rms(prec ) = 0.49062E+00
  weight for this iteration     100.00

 eigenvalues of (default mixing * dielectric matrix)
  average eigenvalue GAMMA=   2.4796
  2.4796

 Free energy of the ion-electron system (eV)
  ---------------------------------------------------
  alpha Z        PSCENC =        -6.10292983
  Ewald energy   TEWEN  =     -2233.45052967
  -1/2 Hartree   DENC   =       -15.81013147
  -exchange  EXHF       =         0.00000000
  -V(xc)+E(xc)   XCENC  =      -813.77988797
  PAW double counting   =      1104.45741133     -113.98594833
  entropy T*S    EENTRO =        -0.07476378
  eigenvalues    EBANDS =       304.76287232
  atomic energy  EATOM  =      1659.66634407
  ---------------------------------------------------
  free energy    TOTEN  =      -114.31756334 eV

  energy without entropy =     -114.24279956  energy(sigma->0) =     -114.29264208


--------------------------------------------------------------------------------------------------------




----------------------------------------- Iteration    1(  14)  ---------------------------------------


    POTLOK:  cpu time    0.14: real time    0.14
    SETDIJ:  cpu time    0.01: real time    0.01
    EDDIAG:  cpu time    0.30: real time    0.30
  RMM-DIIS:  cpu time    1.18: real time    1.18
    ORTHCH:  cpu time    0.02: real time    0.02
       DOS:  cpu time    0.00: real time    0.00
    CHARGE:  cpu time    0.19: real time    0.19
    MIXING:  cpu time    0.00: real time    0.00
    --------------------------------------------
      LOOP:  cpu time    1.85: real time    1.85

 eigenvalue-minimisations  :   288
 total energy-change (2. order) : 0.2637541E+00  (-0.1630496E-01)
 number of electron   92.9999998 magnetization 
 augmentation part    -1.1778142 magnetization 

 Broyden mixing:
  rms(total) = 0.11325E+00    rms(broyden)= 0.11325E+00
  rms(prec ) = 0.16661E+00
  weight for this iteration     100.00

 eigenvalues of (default mixing * dielectric matrix)
  average eigenvalue GAMMA=   1.8233
  2.5881  1.0585

 Free energy of the ion-electron system (eV)
  ---------------------------------------------------
  alpha Z        PSCENC =        -6.10292983
  Ewald energy   TEWEN  =     -2233.45052967
  -1/2 Hartree   DENC   =       -16.73195162
  -exchange  EXHF       =         0.00000000
  -V(xc)+E(xc)   XCENC  =      -812.35269537
  PAW double counting   =      1106.51144951     -116.21663541
  entropy T*S    EENTRO =        -0.07575942
  eigenvalues    EBANDS =       304.69889853
  atomic energy  EATOM  =      1659.66634407
  ---------------------------------------------------
  free energy    TOTEN  =      -114.05380923 eV

  energy without entropy =     -113.97804981  energy(sigma->0) =     -114.02855609


--------------------------------------------------------------------------------------------------------




----------------------------------------- Iteration    1(  15)  ---------------------------------------


    POTLOK:  cpu time    0.14: real time    0.14
    SETDIJ:  cpu time    0.01: real time    0.01
    EDDIAG:  cpu time    0.30: real time    0.30
  RMM-DIIS:  cpu time    1.20: real time    1.20
    ORTHCH:  cpu time    0.02: real time    0.02
       DOS:  cpu time    0.00: real time    0.00
    CHARGE:  cpu time    0.19: real time    0.19
    MIXING:  cpu time    0.00: real time    0.00
    --------------------------------------------
      LOOP:  cpu time    1.87: real time    1.87

 eigenvalue-minimisations  :   288
 total energy-change (2. order) : 0.3646669E-01  (-0.2607539E-02)
 number of electron   92.9999998 magnetization 
 augmentation part    -1.1889387 magnetization 

 Broyden mixing:
  rms(total) = 0.15422E-01    rms(broyden)= 0.15422E-01
  rms(prec ) = 0.27421E-01
  weight for this iteration     100.00

 eigenvalues of (default mixing * dielectric matrix)
  average eigenvalue GAMMA=   1.7642
  2.6079  0.9901  1.6947

 Free energy of the ion-electron system (eV)
  ---------------------------------------------------
  alpha Z        PSCENC =        -6.10292983
  Ewald energy   TEWEN  =     -2233.45052967
  -1/2 Hartree   DENC   =       -17.32919470
  -exchange  EXHF       =         0.00000000
  -V(xc)+E(xc)   XCENC  =      -811.56387124
  PAW double counting   =      1107.57173545     -117.38426603
  entropy T*S    EENTRO =        -0.07585637
  eigenvalues    EBANDS =       304.65122579
  atomic energy  EATOM  =      1659.66634407
  ---------------------------------------------------
  free energy    TOTEN  =      -114.01734254 eV

  energy without entropy =     -113.94148617  energy(sigma->0) =     -113.99205708


--------------------------------------------------------------------------------------------------------




----------------------------------------- Iteration    1(  16)  ---------------------------------------


    POTLOK:  cpu time    0.14: real time    0.15
    SETDIJ:  cpu time    0.01: real time    0.01
    EDDIAG:  cpu time    0.30: real time    0.30
  RMM-DIIS:  cpu time    1.21: real time    1.22
    ORTHCH:  cpu time    0.02: real time    0.02
       DOS:  cpu time    0.00: real time    0.00
    CHARGE:  cpu time    0.19: real time    0.19
    MIXING:  cpu time    0.00: real time    0.01
    --------------------------------------------
      LOOP:  cpu time    1.89: real time    1.89

 eigenvalue-minimisations  :   290
 total energy-change (2. order) : 0.1348674E-02  (-0.2505715E-03)
 number of electron   92.9999998 magnetization 
 augmentation part    -1.1916074 magnetization 

 Broyden mixing:
  rms(total) = 0.49046E-02    rms(broyden)= 0.49046E-02
  rms(prec ) = 0.78810E-02
  weight for this iteration     100.00

 eigenvalues of (default mixing * dielectric matrix)
  average eigenvalue GAMMA=   1.7659
  2.6488  2.1290  0.9877  1.2980

 Free energy of the ion-electron system (eV)
  ---------------------------------------------------
  alpha Z        PSCENC =        -6.10292983
  Ewald energy   TEWEN  =     -2233.45052967
  -1/2 Hartree   DENC   =       -17.30700997
  -exchange  EXHF       =         0.00000000
  -V(xc)+E(xc)   XCENC  =      -811.47970396
  PAW double counting   =      1107.84973881     -117.68881956
  entropy T*S    EENTRO =        -0.07539760
  eigenvalues    EBANDS =       304.57231386
  atomic energy  EATOM  =      1659.66634407
  ---------------------------------------------------
  free energy    TOTEN  =      -114.01599386 eV

  energy without entropy =     -113.94059626  energy(sigma->0) =     -113.99086133


--------------------------------------------------------------------------------------------------------




----------------------------------------- Iteration    1(  17)  ---------------------------------------


    POTLOK:  cpu time    0.15: real time    0.15
    SETDIJ:  cpu time    0.01: real time    0.01
    EDDIAG:  cpu time    0.30: real time    0.30
  RMM-DIIS:  cpu time    1.23: real time    1.23
    ORTHCH:  cpu time    0.02: real time    0.02
       DOS:  cpu time    0.00: real time    0.00
    CHARGE:  cpu time    0.19: real time    0.19
    MIXING:  cpu time    0.00: real time    0.01
    --------------------------------------------
      LOOP:  cpu time    1.90: real time    1.90

 eigenvalue-minimisations  :   291
 total energy-change (2. order) : 0.4892924E-04  (-0.3207165E-04)
 number of electron   92.9999998 magnetization 
 augmentation part    -1.1925925 magnetization 

 Broyden mixing:
  rms(total) = 0.12872E-02    rms(broyden)= 0.12872E-02
  rms(prec ) = 0.19104E-02
  weight for this iteration     100.00

 eigenvalues of (default mixing * dielectric matrix)
  average eigenvalue GAMMA=   1.7663
  2.6266  2.2877  1.7316  0.9976  1.1880

 Free energy of the ion-electron system (eV)
  ---------------------------------------------------
  alpha Z        PSCENC =        -6.10292983
  Ewald energy   TEWEN  =     -2233.45052967
  -1/2 Hartree   DENC   =       -17.29853523
  -exchange  EXHF       =         0.00000000
  -V(xc)+E(xc)   XCENC  =      -811.45544615
  PAW double counting   =      1107.93956031     -117.79080615
  entropy T*S    EENTRO =        -0.07527922
  eigenvalues    EBANDS =       304.55167695
  atomic energy  EATOM  =      1659.66634407
  ---------------------------------------------------
  free energy    TOTEN  =      -114.01594493 eV

  energy without entropy =     -113.94066571  energy(sigma->0) =     -113.99085186


--------------------------------------------------------------------------------------------------------




----------------------------------------- Iteration    1(  18)  ---------------------------------------


    POTLOK:  cpu time    0.14: real time    0.14
    SETDIJ:  cpu time    0.01: real time    0.01
    EDDIAG:  cpu time    0.30: real time    0.30
  RMM-DIIS:  cpu time    1.21: real time    1.21
    ORTHCH:  cpu time    0.02: real time    0.02
       DOS:  cpu time    0.00: real time    0.00
    CHARGE:  cpu time    0.19: real time    0.19
    MIXING:  cpu time    0.00: real time    0.00
    --------------------------------------------
      LOOP:  cpu time    1.88: real time    1.89

 eigenvalue-minimisations  :   294
 total energy-change (2. order) :-0.9896352E-05  (-0.2422544E-05)
 number of electron   92.9999998 magnetization 
 augmentation part    -1.1929621 magnetization 

 Broyden mixing:
  rms(total) = 0.50245E-03    rms(broyden)= 0.50242E-03
  rms(prec ) = 0.71208E-03
  weight for this iteration     100.00

 eigenvalues of (default mixing * dielectric matrix)
  average eigenvalue GAMMA=   1.7350
  2.6684  2.5340  1.7600  1.0149  1.0149  1.4177

 Free energy of the ion-electron system (eV)
  ---------------------------------------------------
  alpha Z        PSCENC =        -6.10292983
  Ewald energy   TEWEN  =     -2233.45052967
  -1/2 Hartree   DENC   =       -17.30533136
  -exchange  EXHF       =         0.00000000
  -V(xc)+E(xc)   XCENC  =      -811.45120712
  PAW double counting   =      1107.93989460     -117.79394418
  entropy T*S    EENTRO =        -0.07536462
  eigenvalues    EBANDS =       304.55711328
  atomic energy  EATOM  =      1659.66634407
  ---------------------------------------------------
  free energy    TOTEN  =      -114.01595483 eV

  energy without entropy =     -113.94059021  energy(sigma->0) =     -113.99083329


--------------------------------------------------------------------------------------------------------




----------------------------------------- Iteration    1(  19)  ---------------------------------------


    POTLOK:  cpu time    0.15: real time    0.15
    SETDIJ:  cpu time    0.01: real time    0.01
    EDDIAG:  cpu time    0.30: real time    0.30
  RMM-DIIS:  cpu time    0.90: real time    0.90
    ORTHCH:  cpu time    0.02: real time    0.02
       DOS:  cpu time    0.00: real time    0.00
    CHARGE:  cpu time    0.19: real time    0.19
    MIXING:  cpu time    0.00: real time    0.01
    --------------------------------------------
      LOOP:  cpu time    1.57: real time    1.57

 eigenvalue-minimisations  :   197
 total energy-change (2. order) :-0.5069669E-05  (-0.2233519E-06)
 number of electron   92.9999998 magnetization 
 augmentation part    -1.1930444 magnetization 

 Broyden mixing:
  rms(total) = 0.13367E-03    rms(broyden)= 0.13366E-03
  rms(prec ) = 0.20662E-03
  weight for this iteration     100.00

 eigenvalues of (default mixing * dielectric matrix)
  average eigenvalue GAMMA=   1.6991
  2.6995  2.5443  1.7676  1.7123  1.2412  0.9644  0.9644

 Free energy of the ion-electron system (eV)
  ---------------------------------------------------
  alpha Z        PSCENC =        -6.10292983
  Ewald energy   TEWEN  =     -2233.45052967
  -1/2 Hartree   DENC   =       -17.30697135
  -exchange  EXHF       =         0.00000000
  -V(xc)+E(xc)   XCENC  =      -811.44934351
  PAW double counting   =      1107.92935547     -117.78463214
  entropy T*S    EENTRO =        -0.07533415
  eigenvalues    EBANDS =       304.55808122
  atomic energy  EATOM  =      1659.66634407
  ---------------------------------------------------
  free energy    TOTEN  =      -114.01595990 eV

  energy without entropy =     -113.94062575  energy(sigma->0) =     -113.99084852


--------------------------------------------------------------------------------------------------------




----------------------------------------- Iteration    1(  20)  ---------------------------------------


    POTLOK:  cpu time    0.14: real time    0.14
    SETDIJ:  cpu time    0.01: real time    0.01
    EDDIAG:  cpu time    0.30: real time    0.30
  RMM-DIIS:  cpu time    0.83: real time    0.83
    ORTHCH:  cpu time    0.02: real time    0.02
       DOS:  cpu time    0.00: real time    0.00
    CHARGE:  cpu time    0.19: real time    0.19
    MIXING:  cpu time    0.01: real time    0.01
    --------------------------------------------
      LOOP:  cpu time    1.50: real time    1.50

 eigenvalue-minimisations  :   178
 total energy-change (2. order) :-0.1009012E-05  (-0.6179166E-07)
 number of electron   92.9999998 magnetization 
 augmentation part    -1.1930872 magnetization 

 Broyden mixing:
  rms(total) = 0.32311E-04    rms(broyden)= 0.32303E-04
  rms(prec ) = 0.53473E-04
  weight for this iteration     100.00

 eigenvalues of (default mixing * dielectric matrix)
  average eigenvalue GAMMA=   1.6646
  2.6460  2.6460  2.0011  1.6660  1.3797  1.0813  0.9985  0.8983

 Free energy of the ion-electron system (eV)
  ---------------------------------------------------
  alpha Z        PSCENC =        -6.10292983
  Ewald energy   TEWEN  =     -2233.45052967
  -1/2 Hartree   DENC   =       -17.30821439
  -exchange  EXHF       =         0.00000000
  -V(xc)+E(xc)   XCENC  =      -811.44889781
  PAW double counting   =      1107.92117098     -117.77665575
  entropy T*S    EENTRO =        -0.07533642
  eigenvalues    EBANDS =       304.55908792
  atomic energy  EATOM  =      1659.66634407
  ---------------------------------------------------
  free energy    TOTEN  =      -114.01596091 eV

  energy without entropy =     -113.94062449  energy(sigma->0) =     -113.99084877


--------------------------------------------------------------------------------------------------------




----------------------------------------- Iteration    1(  21)  ---------------------------------------


    POTLOK:  cpu time    0.15: real time    0.15
    SETDIJ:  cpu time    0.01: real time    0.01
    EDDIAG:  cpu time    0.30: real time    0.30
  RMM-DIIS:  cpu time    0.81: real time    0.81
    ORTHCH:  cpu time    0.02: real time    0.02
       DOS:  cpu time    0.00: real time    0.00
    --------------------------------------------
      LOOP:  cpu time    1.29: real time    1.29

 eigenvalue-minimisations  :   171
 total energy-change (2. order) :-0.4270100E-07  (-0.1868597E-07)
 number of electron   92.9999998 magnetization 
 augmentation part    -1.1930872 magnetization 

 Free energy of the ion-electron system (eV)
  ---------------------------------------------------
  alpha Z        PSCENC =        -6.10292983
  Ewald energy   TEWEN  =     -2233.45052967
  -1/2 Hartree   DENC   =       -17.30834287
  -exchange  EXHF       =         0.00000000
  -V(xc)+E(xc)   XCENC  =      -811.44893799
  PAW double counting   =      1107.91770586     -117.77316003
  entropy T*S    EENTRO =        -0.07533830
  eigenvalues    EBANDS =       304.55922781
  atomic energy  EATOM  =      1659.66634407
  ---------------------------------------------------
  free energy    TOTEN  =      -114.01596095 eV

  energy without entropy =     -113.94062266  energy(sigma->0) =     -113.99084819


--------------------------------------------------------------------------------------------------------




 average (electrostatic) potential at core
  the test charge radii are     1.0406
  (the norm of the test charge is              1.0000)
       1 -72.9795       2 -73.0483       3 -72.9899       4 -72.9899       5 -73.0460
       6 -73.0457       7 -72.9974       8 -72.8834       9 -72.9558      10 -72.9899
      11 -72.9899      12 -73.0521      13 -73.0519      14 -72.9974      15 -72.8834
      16 -73.0460      17 -73.0457      18 -72.8834      19 -72.9974      20 -73.0482
      21 -72.9800      22 -72.9897      23 -72.9897      24 -73.0521      25 -73.0519
      26 -72.8834      27 -72.9974      28 -72.9555      29 -72.9897      30 -72.9897
      31 -72.9662
 
 
 
 E-fermi :   7.8742     XC(G=0): -10.0490     alpha+bet :-14.3870
   add alpha+bet to get absolut eigen values

 k-point   1 :       0.2500    0.2500    0.2500
  band No.  band energies     occupation 
      1      -2.9369      2.00000
      2      -1.9054      2.00000
      3      -1.8207      2.00000
      4      -1.6628      2.00000
      5      -0.7747      2.00000
      6      -0.7147      2.00000
      7      -0.4688      2.00000
      8       0.3150      2.00000
      9       0.3664      2.00000
     10       0.4169      2.00000
     11       0.6284      2.00000
     12       1.4060      2.00000
     13       1.4278      2.00000
     14       1.4637      2.00000
     15       1.5266      2.00000
     16       1.7319      2.00000
     17       1.8550      2.00000
     18       2.5884      2.00000
     19       2.6580      2.00000
     20       2.7457      2.00000
     21       3.5471      2.00000
     22       3.5960      2.00000
     23       3.6477      2.00000
     24       3.6954      2.00000
     25       3.7312      2.00000
     26       4.0726      2.00000
     27       4.5940      2.00000
     28       4.6142      2.00000
     29       4.6636      2.00000
     30       4.7449      2.00000
     31       4.7508      2.00000
     32       4.7743      2.00000
     33       4.9041      2.00000
     34       5.0715      2.00000
     35       5.0973      2.00000
     36       5.7546      2.00000
     37       5.8454      2.00000
     38       6.1624      2.00000
     39       6.7553      2.00000
     40       6.8234      2.00000
     41       6.8396      2.00000
     42       6.9131      2.00000
     43       6.9784      2.00000
     44       7.0003      2.00000
     45       7.1395      2.00000
     46       7.7915      1.63738
     47       7.9144      0.66712
     48       7.9179      0.63950
     49       7.9488      0.41430
     50       8.0270      0.03952
     51       8.1196     -0.07091
     52       8.2089     -0.03943
     53       8.2458     -0.02459
     54       8.4314     -0.00059
     55       9.0964      0.00000
     56       9.1923      0.00000
     57       9.2401      0.00000
     58       9.3405      0.00000
     59       9.3479      0.00000
     60       9.4594      0.00000
     61       9.9403      0.00000
     62       9.9869      0.00000
     63       9.9907      0.00000
     64      10.0924      0.00000
     65      10.1059      0.00000
     66      10.1908      0.00000
     67      10.3699      0.00000
     68      10.5100      0.00000
     69      10.5820      0.00000
     70      11.1040      0.00000
     71      11.2123      0.00000
     72      11.3189      0.00000

 k-point   2 :      -0.2500    0.2500    0.2500
  band No.  band energies     occupation 
      1      -2.9372      2.00000
      2      -1.9149      2.00000
      3      -1.7406      2.00000
      4      -1.7398      2.00000
      5      -0.7920      2.00000
      6      -0.6278      2.00000
      7      -0.5534      2.00000
      8       0.3055      2.00000
      9       0.4271      2.00000
     10       0.4772      2.00000
     11       0.5639      2.00000
     12       1.4130      2.00000
     13       1.4529      2.00000
     14       1.4560      2.00000
     15       1.5505      2.00000
     16       1.5631      2.00000
     17       1.8991      2.00000
     18       2.5440      2.00000
     19       2.6988      2.00000
     20       2.8386      2.00000
     21       3.5699      2.00000
     22       3.6033      2.00000
     23       3.6891      2.00000
     24       3.6954      2.00000
     25       3.7762      2.00000
     26       3.8736      2.00000
     27       4.5664      2.00000
     28       4.6497      2.00000
     29       4.6598      2.00000
     30       4.7079      2.00000
     31       4.7712      2.00000
     32       4.7886      2.00000
     33       4.9681      2.00000
     34       5.0113      2.00000
     35       5.1444      2.00000
     36       5.7222      2.00000
     37       5.9070      2.00000
     38       6.1526      2.00000
     39       6.7324      2.00000
     40       6.8042      2.00000
     41       6.8369      2.00000
     42       6.9097      2.00000
     43       6.9747      2.00000
     44       6.9963      2.00000
     45       7.0850      2.00000
     46       7.8111      1.50566
     47       7.8662      1.06724
     48       7.9636      0.32058
     49       8.0236      0.04941
     50       8.1239     -0.07074
     51       8.1526     -0.06411
     52       8.2279     -0.03134
     53       8.2334     -0.02915
     54       8.3025     -0.00985
     55       9.1313      0.00000
     56       9.1763      0.00000
     57       9.1872      0.00000
     58       9.3236      0.00000
     59       9.3566      0.00000
     60       9.5393      0.00000
     61       9.8976      0.00000
     62       9.9475      0.00000
     63      10.0141      0.00000
     64      10.0287      0.00000
     65      10.1495      0.00000
     66      10.1727      0.00000
     67      10.3704      0.00000
     68      10.5136      0.00000
     69      10.6483      0.00000
     70      10.9239      0.00000
     71      11.2056      0.00000
     72      11.3226      0.00000


--------------------------------------------------------------------------------------------------------


 soft charge-density along one line, spin component           1
         0         1         2         3         4         5         6         7         8         9
 total charge-density along one line
 
 pseudopotential strength for first ion, spin component:           1
  8.458  -0.006   0.000   0.000   0.000   0.000   0.000   0.000
 -0.006   0.000   0.000   0.000   0.000   0.000   0.000   0.000
  0.000   0.000   1.988   0.000   0.000  -0.026   0.000   0.000
  0.000   0.000   0.000   1.988   0.000   0.000  -0.026   0.000
  0.000   0.000   0.000   0.000   1.988   0.000   0.000  -0.026
  0.000   0.000  -0.026   0.000   0.000  -0.012   0.000   0.000
  0.000   0.000   0.000  -0.026   0.000   0.000  -0.012   0.000
  0.000   0.000   0.000   0.000  -0.026   0.000   0.000  -0.012
 total augmentation occupancy for first ion, spin component:           1
  1.307  -0.519   0.000   0.005   0.005   0.000   0.000   0.000
 -0.519   0.491   0.000   0.004   0.004   0.000  -0.001  -0.001
  0.000   0.000   0.744   0.000   0.000  -0.183   0.000   0.000
  0.005   0.004   0.000   0.749  -0.009   0.000  -0.186   0.003
  0.005   0.004   0.000  -0.009   0.749   0.000   0.003  -0.186
  0.000   0.000  -0.183   0.000   0.000   0.051   0.000   0.000
  0.000  -0.001   0.000  -0.186   0.003   0.000   0.052  -0.001
  0.000  -0.001   0.000   0.003  -0.186   0.000  -0.001   0.052


------------------------ aborting loop because EDIFF is reached ----------------------------------------




--------------------------------------------------------------------------------------------------------



  FREE ENERGIE OF THE ION-ELECTRON SYSTEM (eV)
  ---------------------------------------------------
  free  energy   TOTEN  =      -114.015961 eV

  energy  without entropy=     -113.940623  energy(sigma->0) =     -113.990848
 
    CHARGE:  cpu time    0.19: real time    0.19
    FORLOC:  cpu time    0.03: real time    0.03
    FORNL :  cpu time    0.46: real time    0.46
    STRESS:  cpu time    0.93: real time    0.93
    FORCOR:  cpu time    0.17: real time    0.17
    FORHAR:  cpu time    0.07: real time    0.07
    MIXING:  cpu time    0.00: real time    0.01

  FORCE on cell =-STRESS in cart. coord.  units (eV):
  Direction    XX          YY          ZZ          XY          YZ          ZX
  --------------------------------------------------------------------------------------
  Alpha Z    -6.10293    -6.10293    -6.10293
  Ewald    -748.75163  -735.95606  -748.75163     0.00000     0.00000    -8.90766
  Hartree     7.07514     3.15828     7.07514     0.00000     0.00000    -0.83406
  E(xc)    -264.21787  -264.69889  -264.21787     0.00000     0.00000     0.08615
  Local      -5.45276   -15.53212    -5.45276     0.00000     0.00000    10.06758
  n-local   586.64956   592.57819   586.64955     0.13510    -0.80161    -1.34840
  augment   -31.72307   -32.00751   -31.72308     0.00000     0.00000     0.10814
  Kinetic   461.04043   460.33004   461.04042     0.13083    -1.28800    -0.41081
  Fock        0.00000     0.00000     0.00000     0.00000     0.00000     0.00000
  -------------------------------------------------------------------------------------
  Total      -1.48315     1.76900    -1.48315     0.00000     0.00000    -1.23907
  in kB      -4.49289     5.35880    -4.49289     0.00000     0.00000    -3.75349
  external pressure =       -1.21 kB  Pullay stress =        0.00 kB


 VOLUME and BASIS-vectors are now :
 -----------------------------------------------------------------------------
  energy-cutoff  :      300.00
  volume of cell :      528.90
      direct lattice vectors                 reciprocal lattice vectors
     8.087052000  0.000000000  0.000000000     0.123654454  0.000000000  0.000000000
     0.000000000  8.087052000  0.000000000     0.000000000  0.123654454  0.000000000
     0.000000000  0.000000000  8.087052000     0.000000000  0.000000000  0.123654454

  length of vectors
     8.087052000  8.087052000  8.087052000     0.123654454  0.123654454  0.123654454


 FORCES acting on ions
    electron-ion (+dipol)            ewald-force                    non-local-force                 convergence-correction
 -----------------------------------------------------------------------------------------------
   -.122E+01 -.840E-06 -.122E+01   0.126E+01 -.672E-04 0.126E+01   -.350E-01 0.000E+00 -.350E-01   0.932E-05 0.377E-06 0.954E-05
   -.212E+00 0.655E-06 -.212E+00   0.314E+00 0.515E-04 0.314E+00   -.111E+00 0.000E+00 -.111E+00   -.147E-04 0.408E-06 -.145E-04
   -.123E+01 -.788E+01 -.527E+01   0.861E+00 0.792E+01 0.524E+01   0.369E+00 0.111E-01 0.711E-01   -.132E-04 0.392E-05 0.224E-04
   -.527E+01 -.788E+01 -.123E+01   0.524E+01 0.792E+01 0.861E+00   0.711E-01 0.111E-01 0.369E+00   0.220E-04 0.418E-05 -.128E-04
   0.119E+01 -.436E-07 -.626E+00   -.131E+01 -.367E-05 0.275E+00   0.150E+00 0.000E+00 0.311E+00   0.106E-05 0.393E-06 -.467E-05
   0.626E+00 -.436E-07 -.119E+01   -.275E+00 -.366E-05 0.131E+01   -.311E+00 0.000E+00 -.150E+00   0.151E-04 0.393E-06 -.100E-04
   0.600E+00 -.340E+01 -.600E+00   -.713E+00 0.345E+01 0.714E+00   0.928E-01 -.150E-01 -.928E-01   0.158E-04 -.370E-04 -.732E-05
   0.350E+01 -.574E+01 -.350E+01   -.340E+01 0.620E+01 0.340E+01   -.779E-01 -.516E+00 0.779E-01   -.215E-04 -.178E-04 0.164E-05
   -.633E+01 -.765E-06 -.633E+01   0.616E+01 -.612E-04 0.616E+01   0.167E+00 0.000E+00 0.167E+00   0.440E-04 -.327E-06 0.446E-04
   -.123E+01 0.788E+01 -.527E+01   0.861E+00 -.792E+01 0.524E+01   0.369E+00 -.111E-01 0.711E-01   -.132E-04 -.393E-05 0.224E-04
   -.527E+01 0.788E+01 -.123E+01   0.524E+01 -.792E+01 0.861E+00   0.711E-01 -.111E-01 0.369E+00   0.220E-04 -.420E-05 -.129E-04
   0.489E+01 0.138E-06 -.249E+01   -.513E+01 0.109E-04 0.238E+01   0.237E+00 0.000E+00 0.140E+00   -.459E-04 -.395E-06 -.389E-05
   0.249E+01 0.138E-06 -.489E+01   -.238E+01 0.109E-04 0.513E+01   -.140E+00 0.000E+00 -.237E+00   0.233E-04 -.395E-06 0.261E-04
   0.600E+00 0.340E+01 -.600E+00   -.713E+00 -.345E+01 0.714E+00   0.928E-01 0.150E-01 -.928E-01   0.158E-04 0.369E-04 -.736E-05
   0.350E+01 0.574E+01 -.350E+01   -.340E+01 -.620E+01 0.340E+01   -.779E-01 0.516E+00 0.779E-01   -.215E-04 0.180E-04 0.160E-05
   -.626E+00 -.436E-07 0.119E+01   0.275E+00 -.367E-05 -.131E+01   0.311E+00 0.000E+00 0.150E+00   -.489E-05 0.393E-06 0.824E-06
   -.119E+01 -.436E-07 0.626E+00   0.131E+01 -.366E-05 -.275E+00   -.150E+00 0.000E+00 -.311E+00   -.102E-04 0.393E-06 0.148E-04
   -.350E+01 -.574E+01 0.350E+01   0.340E+01 0.620E+01 -.340E+01   0.779E-01 -.516E+00 -.779E-01   0.131E-05 -.178E-04 -.218E-04
   -.600E+00 -.340E+01 0.600E+00   0.714E+00 0.345E+01 -.713E+00   -.928E-01 -.150E-01 0.928E-01   -.770E-05 -.370E-04 0.154E-04
   0.212E+00 0.655E-06 0.212E+00   -.315E+00 0.515E-04 -.315E+00   0.111E+00 0.000E+00 0.111E+00   0.541E-05 0.408E-06 0.518E-05
   0.122E+01 -.840E-06 0.122E+01   -.126E+01 -.672E-04 -.126E+01   0.350E-01 0.000E+00 0.350E-01   0.174E-06 0.377E-06 -.548E-07
   0.527E+01 -.788E+01 0.123E+01   -.524E+01 0.792E+01 -.861E+00   -.711E-01 0.111E-01 -.369E+00   -.115E-05 -.588E-05 0.495E-05
   0.123E+01 -.788E+01 0.527E+01   -.861E+00 0.792E+01 -.524E+01   -.369E+00 0.111E-01 -.711E-01   0.528E-05 -.614E-05 -.154E-05
   -.249E+01 0.138E-06 0.489E+01   0.238E+01 0.109E-04 -.513E+01   0.140E+00 0.000E+00 0.237E+00   -.448E-05 -.395E-06 -.463E-04
   -.489E+01 0.138E-06 0.249E+01   0.513E+01 0.109E-04 -.238E+01   -.237E+00 0.000E+00 -.140E+00   0.257E-04 -.395E-06 0.227E-04
   -.350E+01 0.574E+01 0.350E+01   0.340E+01 -.620E+01 -.340E+01   0.779E-01 0.516E+00 -.779E-01   0.127E-05 0.180E-04 -.218E-04
   -.600E+00 0.340E+01 0.600E+00   0.714E+00 -.345E+01 -.713E+00   -.928E-01 0.150E-01 0.928E-01   -.774E-05 0.369E-04 0.155E-04
   0.633E+01 -.765E-06 0.633E+01   -.616E+01 -.612E-04 -.616E+01   -.167E+00 0.000E+00 -.167E+00   -.247E-04 -.327E-06 -.253E-04
   0.527E+01 0.788E+01 0.123E+01   -.524E+01 -.792E+01 -.861E+00   -.711E-01 -.111E-01 -.369E+00   -.111E-05 0.586E-05 0.499E-05
   0.123E+01 0.788E+01 0.527E+01   -.861E+00 -.792E+01 -.524E+01   -.369E+00 -.111E-01 -.711E-01   0.533E-05 0.613E-05 -.150E-05
   0.353E-04 0.179E-05 0.353E-04   0.680E-03 0.141E-03 0.680E-03   0.000E+00 0.000E+00 0.000E+00   -.166E-04 -.487E-06 -.166E-04
 -----------------------------------------------------------------------------------------------
   0.444E-02 0.609E-04 0.444E-02   0.485E-14 -.837E-15 -.125E-12   0.222E-15 -.232E-15 0.222E-15   0.452E-05 0.468E-06 0.452E-05
 
 
 POSITION                                       TOTAL-FORCE (eV/Angst)
 -----------------------------------------------------------------------------------
      8.08455      0.00000      8.08455         0.005934      0.000000      0.005934
      2.00936      0.00000      2.00936        -0.009037      0.000000     -0.009037
      2.00657      2.04900      0.01925        -0.002920      0.050920      0.039862
      0.01925      2.04900      2.00657         0.039862      0.050920     -0.002920
      4.04785      0.00000      8.03103         0.027255      0.000000     -0.039331
      6.12130      0.00000      2.01744         0.039331      0.000000     -0.027255
      6.07609      2.02831      8.07624        -0.020409      0.039003      0.020409
      4.09660      1.91640      1.96867         0.019605     -0.054414     -0.019605
      0.00742      4.04353      0.00742        -0.001214      0.000000     -0.001214
      2.00657      6.03805      0.01925        -0.002920     -0.050920      0.039862
      0.01925      6.03805      2.00657         0.039862     -0.050920     -0.002920
      4.00171      4.04353      0.04384         0.002921      0.000000      0.022000
      6.02147      4.04353      2.06356        -0.022000      0.000000     -0.002921
      6.07609      6.05873      8.07624        -0.020409     -0.039003      0.020409
      4.09660      6.17066      1.96867         0.019605      0.054414     -0.019605
      8.03103      0.00000      4.04785        -0.039331      0.000000      0.027255
      2.01744      0.00000      6.12130        -0.027255      0.000000      0.039331
      1.96867      1.91640      4.09660        -0.019605     -0.054414      0.019605
      8.07624      2.02831      6.07609         0.020409      0.039003     -0.020409
      4.05594      0.00000      4.05594         0.009037      0.000000      0.009037
      6.06778      0.00000      6.06778        -0.005934      0.000000     -0.005934
      6.04606      2.04898      4.05873        -0.039862      0.050920      0.002920
      4.05873      2.04898      6.04606         0.002920      0.050920     -0.039862
      0.04384      4.04353      4.00171         0.022000      0.000000      0.002921
      2.06356      4.04353      6.02147        -0.002921      0.000000     -0.022000
      1.96867      6.17066      4.09660        -0.019605      0.054414      0.019605
      8.07624      6.05873      6.07609         0.020409     -0.039003     -0.020409
      6.05789      4.04353      6.05789         0.001214      0.000000      0.001214
      6.04606      6.03807      4.05873        -0.039862     -0.050920      0.002920
      4.05873      6.03807      6.04606         0.002920     -0.050920     -0.039862
      3.03264      4.04353      3.03264         0.000000      0.000000      0.000000
 -----------------------------------------------------------------------------------
    total drift:                                0.004441      0.000061      0.004441


--------------------------------------------------------------------------------------------------------


    POTLOK:  cpu time    0.16: real time    0.16


--------------------------------------------------------------------------------------------------------


  FORCES: max atom, RMS     0.000000    0.000000
  FORCE total and by dimension    0.000000    0.000000

 ----------------------------------------------------------------------------- 
|                                                                             |
|           W    W    AA    RRRRR   N    N  II  N    N   GGGG   !!!           |
|           W    W   A  A   R    R  NN   N  II  NN   N  G    G  !!!           |
|           W    W  A    A  R    R  N N  N  II  N N  N  G       !!!           |
|           W WW W  AAAAAA  RRRRR   N  N N  II  N  N N  G  GGG   !            |
|           WW  WW  A    A  R   R   N   NN  II  N   NN  G    G                |
|           W    W  A    A  R    R  N    N  II  N    N   GGGG   !!!           |
|                                                                             |
|      Your timestep is larger than 0.1 Angst.                                |
|      For finite differences this really does not make sense. I will         |
|      reset POTIM to 0.015. I recommend to use 0.01 to 0.02 for finite       |
|      differences.                                                           |
|                                                                             |
 ----------------------------------------------------------------------------- 

 Finite differences:
   Step               POTIM =   1.500000000000000E-002
   Degrees of freedom DOF   =            3
  LATTYP: Found a simple cubic cell.
 ALAT       =     8.0870520000
  
  Lattice vectors:
  
 A1 = (   8.0870520000,   0.0000000000,   0.0000000000)
 A2 = (   0.0000000000,   8.0870520000,   0.0000000000)
 A3 = (   0.0000000000,   0.0000000000,   8.0870520000)
 Subroutine PRICEL returns:
 Original cell was already a primitive cell.
 

Analysis of symmetry for initial positions (statically):

 Routine SETGRP: Setting up the symmetry group for a 
 simple cubic supercell.


 Subroutine GETGRP returns: Found  2 space group operations
 (whereof  2 operations were pure point group operations)
 out of a pool of 48 trial point group operations.


The static configuration has the point symmetry C_1h.

Analysis of symmetry for dynamics (positions and initial velocities):

 Subroutine DYNSYM returns: Found  2 space group operations
 (whereof  2 operations were pure point group operations)
 out of a pool of  2 trial space group operations
 (whereof  2 operations were pure point group operations)
 and found also     1 'primitive' translations


The dynamic configuration has the point symmetry C_1h.

Analysis of constrained symmetry for selective dynamics:

 Subroutine DYNSYM returns: Found  2 space group operations
 (whereof  2 operations were pure point group operations)
 out of a pool of  2 trial space group operations
 (whereof  2 operations were pure point group operations)
 and found also     1 'primitive' translations


The constrained configuration has the point symmetry C_1h.
 
 KPOINTS: Automatic kpoint scheme                 

Automatic generation of k-mesh.
 
 Subroutine IBZKPT returns following result:
 ===========================================
 
 Found      2 irreducible k-points:
 
 Following reciprocal coordinates:
            Coordinates               Weight
  0.250000  0.250000  0.250000      4.000000
 -0.250000  0.250000  0.250000      4.000000
 
 Following cartesian coordinates:
            Coordinates               Weight
  0.030914  0.030914  0.030914      4.000000
 -0.030914  0.030914  0.030914      4.000000
 
    WAVPRE:  cpu time    0.04: real time    0.04
    FEWALD:  cpu time    0.01: real time    0.01
    ORTHCH:  cpu time    0.10: real time    0.11
     LOOP+:  cpu time   32.40: real time   32.46
   RESPFUN:  cpu time    0.00: real time    0.00


----------------------------------------- Iteration    2(   1)  ---------------------------------------


[...]
  in kB      -4.49370     5.36250    -4.49538     0.00000     0.00000    -3.75142
  external pressure =       -1.21 kB  Pullay stress =        0.00 kB


 VOLUME and BASIS-vectors are now :
 -----------------------------------------------------------------------------
  energy-cutoff  :      300.00
  volume of cell :      528.90
      direct lattice vectors                 reciprocal lattice vectors
     8.087052000  0.000000000  0.000000000     0.123654454  0.000000000  0.000000000
     0.000000000  8.087052000  0.000000000     0.000000000  0.123654454  0.000000000
     0.000000000  0.000000000  8.087052000     0.000000000  0.000000000  0.123654454

  length of vectors
     8.087052000  8.087052000  8.087052000     0.123654454  0.123654454  0.123654454


 FORCES acting on ions
    electron-ion (+dipol)            ewald-force                    non-local-force                 convergence-correction
 -----------------------------------------------------------------------------------------------
   -.121E+01 -.840E-06 -.121E+01   0.126E+01 -.672E-04 0.125E+01   -.389E-01 0.000E+00 -.362E-01   -.834E-04 0.160E-03 0.208E-03
   -.203E+00 0.656E-06 -.234E+00   0.308E+00 0.515E-04 0.336E+00   -.112E+00 0.000E+00 -.114E+00   0.109E-04 0.250E-03 0.188E-04
   -.122E+01 -.785E+01 -.521E+01   0.842E+00 0.789E+01 0.518E+01   0.372E+00 0.130E-01 0.751E-01   0.221E-04 -.729E-04 0.322E-04
   -.525E+01 -.787E+01 -.125E+01   0.522E+01 0.791E+01 0.883E+00   0.727E-01 0.115E-01 0.369E+00   -.174E-04 0.666E-04 0.189E-04
   0.118E+01 -.439E-07 -.609E+00   -.131E+01 -.367E-05 0.252E+00   0.149E+00 0.000E+00 0.315E+00   0.120E-03 0.202E-03 -.139E-06
   0.627E+00 -.439E-07 -.120E+01   -.271E+00 -.366E-05 0.132E+01   -.315E+00 0.000E+00 -.148E+00   0.170E-04 0.202E-03 -.142E-03
   0.587E+00 -.338E+01 -.576E+00   -.703E+00 0.344E+01 0.691E+00   0.950E-01 -.188E-01 -.951E-01   0.237E-04 -.232E-04 0.677E-04
   0.343E+01 -.561E+01 -.354E+01   -.335E+01 0.609E+01 0.345E+01   -.563E-01 -.558E+00 0.660E-01   -.108E-03 0.609E-04 0.484E-04
   -.631E+01 -.765E-06 -.629E+01   0.614E+01 -.612E-04 0.612E+01   0.169E+00 0.000E+00 0.165E+00   -.219E-03 -.162E-03 0.164E-03
   -.122E+01 0.785E+01 -.521E+01   0.842E+00 -.789E+01 0.518E+01   0.372E+00 -.130E-01 0.751E-01   -.187E-04 0.638E-04 -.145E-04
   -.525E+01 0.787E+01 -.125E+01   0.522E+01 -.791E+01 0.883E+00   0.727E-01 -.115E-01 0.369E+00   -.641E-04 -.757E-04 -.218E-04
   0.484E+01 0.138E-06 -.234E+01   -.508E+01 0.109E-04 0.223E+01   0.238E+00 0.000E+00 0.133E+00   0.735E-04 -.204E-03 -.438E-04
   0.244E+01 0.138E-06 -.493E+01   -.233E+01 0.109E-04 0.516E+01   -.134E+00 0.000E+00 -.233E+00   0.147E-03 -.204E-03 -.131E-03
   0.587E+00 0.338E+01 -.576E+00   -.703E+00 -.344E+01 0.691E+00   0.950E-01 0.188E-01 -.951E-01   0.656E-04 0.224E-04 0.258E-04
   0.343E+01 0.561E+01 -.354E+01   -.335E+01 -.609E+01 0.345E+01   -.563E-01 0.558E+00 0.660E-01   -.648E-04 -.284E-04 0.545E-05
   -.625E+00 -.434E-07 0.118E+01   0.280E+00 -.367E-05 -.130E+01   0.307E+00 0.000E+00 0.152E+00   0.631E-04 0.202E-03 -.216E-03
   -.119E+01 -.434E-07 0.643E+00   0.132E+01 -.366E-05 -.298E+00   -.151E+00 0.000E+00 -.307E+00   0.212E-03 0.202E-03 -.291E-04
   -.357E+01 -.586E+01 0.347E+01   0.346E+01 0.630E+01 -.336E+01   0.995E-01 -.475E+00 -.900E-01   -.453E-04 -.540E-04 0.445E-05
   -.613E+00 -.341E+01 0.624E+00   0.723E+00 0.346E+01 -.735E+00   -.907E-01 -.112E-01 0.906E-01   0.120E-03 0.126E-03 -.183E-04
   0.221E+00 0.656E-06 0.191E+00   -.321E+00 0.515E-04 -.293E+00   0.111E+00 0.000E+00 0.109E+00   -.391E-04 0.250E-03 -.134E-04
   0.123E+01 -.840E-06 0.123E+01   -.127E+01 -.672E-04 -.128E+01   0.310E-01 0.000E+00 0.337E-01   -.176E-03 0.160E-03 0.132E-03
   0.529E+01 -.790E+01 0.121E+01   -.526E+01 0.794E+01 -.839E+00   -.695E-01 0.108E-01 -.369E+00   -.698E-04 -.264E-04 -.655E-04
   0.125E+01 -.791E+01 0.533E+01   -.879E+00 0.795E+01 -.530E+01   -.366E+00 0.935E-02 -.672E-01   -.753E-04 0.100E-03 -.151E-04
   -.255E+01 0.139E-06 0.485E+01   0.242E+01 0.109E-04 -.509E+01   0.145E+00 0.000E+00 0.240E+00   0.106E-03 -.204E-03 -.150E-03
   -.494E+01 0.139E-06 0.264E+01   0.517E+01 0.109E-04 -.252E+01   -.235E+00 0.000E+00 -.145E+00   0.102E-03 -.204E-03 -.135E-04
   -.357E+01 0.586E+01 0.347E+01   0.346E+01 -.630E+01 -.336E+01   0.995E-01 0.475E+00 -.900E-01   -.882E-04 0.864E-04 0.474E-04
   -.613E+00 0.341E+01 0.624E+00   0.723E+00 -.346E+01 -.735E+00   -.907E-01 0.112E-01 0.906E-01   0.776E-04 -.127E-03 0.236E-04
   0.635E+01 -.765E-06 0.636E+01   -.618E+01 -.612E-04 -.619E+01   -.165E+00 0.000E+00 -.169E+00   -.238E-03 -.162E-03 0.144E-03
   0.529E+01 0.790E+01 0.121E+01   -.526E+01 -.794E+01 -.839E+00   -.695E-01 -.108E-01 -.369E+00   -.231E-04 0.173E-04 -.248E-04
   0.125E+01 0.791E+01 0.533E+01   -.879E+00 -.795E+01 -.530E+01   -.366E+00 -.935E-02 -.672E-01   -.345E-04 -.109E-03 0.316E-04
   0.322E+00 0.179E-05 -.377E+00   -.252E+00 0.141E-03 0.351E+00   -.108E+00 0.000E+00 0.469E-01   -.558E-04 -.258E-03 -.434E-03
 -----------------------------------------------------------------------------------------------
   -.513E-02 0.609E-04 -.553E-03   0.488E-14 0.114E-13 -.131E-12   0.551E-02 -.694E-16 0.951E-03   -.260E-03 0.258E-03 -.361E-03
 
 
 POSITION                                       TOTAL-FORCE (eV/Angst)
 -----------------------------------------------------------------------------------
      8.08455      0.00000      8.08455         0.006906      0.000000      0.005386
      2.00936      0.00000      2.00936        -0.007770      0.000000     -0.011137
      2.00657      2.04900      0.01925        -0.004153      0.050372      0.041131
      0.01925      2.04900      2.00657         0.040001      0.051781     -0.002175
      4.04785      0.00000      8.03103         0.026244      0.000000     -0.040667
      6.12130      0.00000      2.01744         0.041548      0.000000     -0.025412
      6.07609      2.02831      8.07624        -0.020858      0.039956      0.020154
      4.09660      1.91640      1.96867         0.027210     -0.072451     -0.024543
      0.00742      4.04353      0.00742        -0.000066      0.000000     -0.002613
      2.00657      6.03805      0.01925        -0.004153     -0.050372      0.041131
      0.01925      6.03805      2.00657         0.040001     -0.051781     -0.002175
      4.00171      4.04353      0.04384         0.004708      0.000000      0.022736
      6.02147      4.04353      2.06356        -0.021082      0.000000     -0.003945
      6.07609      6.05873      8.07624        -0.020858     -0.039956      0.020154
      4.09660      6.17066      1.96867         0.027210      0.072451     -0.024543
      8.03103      0.00000      4.04785        -0.037118      0.000000      0.029053
      2.01744      0.00000      6.12130        -0.028274      0.000000      0.038037
      1.96867      1.91640      4.09660        -0.012165     -0.036657      0.014497
      8.07624      2.02831      6.07609         0.019923      0.038043     -0.020603
      4.05594      0.00000      4.05594         0.010377      0.000000      0.006889
      6.06778      0.00000      6.06778        -0.004992      0.000000     -0.006496
      6.04606      2.04898      4.05873        -0.039751      0.050020      0.003612
      4.05873      2.04898      6.04606         0.001694      0.051509     -0.038563
      0.04384      4.04353      4.00171         0.022951      0.000000      0.001890
      2.06356      4.04353      6.02147        -0.001237      0.000000     -0.020953
      1.96867      6.17066      4.09660        -0.012165      0.036657      0.014497
      8.07624      6.05873      6.07609         0.019923     -0.038043     -0.020603
      6.05789      4.04353      6.05789         0.002389      0.000000     -0.000144
      6.04606      6.03807      4.05873        -0.039751     -0.050020      0.003612
      4.05873      6.03807      6.04606         0.001694     -0.051509     -0.038563
      3.03264      4.04353      3.01764        -0.038385      0.000000      0.020353
 -----------------------------------------------------------------------------------
    total drift:                                0.000115      0.000319      0.000037
 d Force =-0.1245184E-06[-0.611E-03, 0.610E-03]  d Energy = 0.2065983E-06-0.331E-06
 d Force =-0.2039091E-04[-0.105E-01, 0.105E-01]  d Ewald  =-0.2039049E-04-0.417E-09


--------------------------------------------------------------------------------------------------------


    POTLOK:  cpu time    0.16: real time    0.16


--------------------------------------------------------------------------------------------------------


  FORCES: max atom, RMS     0.043447    0.007803
  FORCE total and by dimension    0.043447    0.038385
 Finite differences progress:
  Degree of freedom:   3/  3
  Displacement:        2/  2
  Total:               6/  6
 
 SECOND DERIVATIVES (NOT SYMMETRIZED)
 ------------------------------------
              31X         31Y         31Z 
 31X    -1.357293    0.000000    2.559559
 31Y     0.000000   -9.443671    0.000000
 31Z     2.553165    0.000000   -1.356577
 
 
 Eigenvectors and eigenvalues of the dynamical matrix
 ----------------------------------------------------
 
 
   1 f  =    9.248772 THz    58.111749 2PiTHz  308.505822 cm-1    38.249861 meV
             X         Y         Z           dx          dy          dz
      8.084553  0.000000  8.084553            0           0           0  
      2.009357  0.000000  2.009357            0           0           0  
      2.006567  2.049000  0.019247            0           0           0  
      0.019247  2.049000  2.006567            0           0           0  
      4.047853  0.000000  8.031033            0           0           0  
      6.121300  0.000000  2.017445            0           0           0  
      6.076093  2.028314  8.076240            0           0           0  
      4.096601  1.916405  1.968672            0           0           0  
      0.007416  4.043526  0.007416            0           0           0  
      2.006567  6.038052  0.019247            0           0           0  
      0.019247  6.038052  2.006567            0           0           0  
      4.001708  4.043526  0.043840            0           0           0  
      6.021465  4.043526  2.063565            0           0           0  
      6.076093  6.058730  8.076240            0           0           0  
      4.096601  6.170655  1.968672            0           0           0  
      8.031033  0.000000  4.047853            0           0           0  
      2.017445  0.000000  6.121300            0           0           0  
      1.968672  1.916405  4.096601            0           0           0  
      8.076240  2.028314  6.076093            0           0           0  
      4.055940  0.000000  4.055940            0           0           0  
      6.067780  0.000000  6.067780            0           0           0  
      6.046058  2.048984  4.058730            0           0           0  
      4.058730  2.048984  6.046058            0           0           0  
      0.043840  4.043526  4.001708            0           0           0  
      2.063565  4.043526  6.021465            0           0           0  
      1.968672  6.170655  4.096601            0           0           0  
      8.076240  6.058730  6.076093            0           0           0  
      6.057889  4.043526  6.057889            0           0           0  
      6.046058  6.038068  4.058730            0           0           0  
      4.058730  6.038068  6.046058            0           0           0  
      3.032644  4.043526  3.032644     0.000000   -1.000000    0.000000  
 
   2 f  =    5.953674 THz    37.408039 2PiTHz  198.593191 cm-1    24.622426 meV
             X         Y         Z           dx          dy          dz
      8.084553  0.000000  8.084553            0           0           0  
      2.009357  0.000000  2.009357            0           0           0  
      2.006567  2.049000  0.019247            0           0           0  
      0.019247  2.049000  2.006567            0           0           0  
      4.047853  0.000000  8.031033            0           0           0  
      6.121300  0.000000  2.017445            0           0           0  
      6.076093  2.028314  8.076240            0           0           0  
      4.096601  1.916405  1.968672            0           0           0  
      0.007416  4.043526  0.007416            0           0           0  
      2.006567  6.038052  0.019247            0           0           0  
      0.019247  6.038052  2.006567            0           0           0  
      4.001708  4.043526  0.043840            0           0           0  
      6.021465  4.043526  2.063565            0           0           0  
      6.076093  6.058730  8.076240            0           0           0  
      4.096601  6.170655  1.968672            0           0           0  
      8.031033  0.000000  4.047853            0           0           0  
      2.017445  0.000000  6.121300            0           0           0  
      1.968672  1.916405  4.096601            0           0           0  
      8.076240  2.028314  6.076093            0           0           0  
      4.055940  0.000000  4.055940            0           0           0  
      6.067780  0.000000  6.067780            0           0           0  
      6.046058  2.048984  4.058730            0           0           0  
      4.058730  2.048984  6.046058            0           0           0  
      0.043840  4.043526  4.001708            0           0           0  
      2.063565  4.043526  6.021465            0           0           0  
      1.968672  6.170655  4.096601            0           0           0  
      8.076240  6.058730  6.076093            0           0           0  
      6.057889  4.043526  6.057889            0           0           0  
      6.046058  6.038068  4.058730            0           0           0  
      4.058730  6.038068  6.046058            0           0           0  
      3.032644  4.043526  3.032644     0.707156    0.000000   -0.707057  
 
   3 f/i=    3.296101 THz    20.710016 2PiTHz  109.946105 cm-1    13.631585 meV
             X         Y         Z           dx          dy          dz
      8.084553  0.000000  8.084553            0           0           0  
      2.009357  0.000000  2.009357            0           0           0  
      2.006567  2.049000  0.019247            0           0           0  
      0.019247  2.049000  2.006567            0           0           0  
      4.047853  0.000000  8.031033            0           0           0  
      6.121300  0.000000  2.017445            0           0           0  
      6.076093  2.028314  8.076240            0           0           0  
      4.096601  1.916405  1.968672            0           0           0  
      0.007416  4.043526  0.007416            0           0           0  
      2.006567  6.038052  0.019247            0           0           0  
      0.019247  6.038052  2.006567            0           0           0  
      4.001708  4.043526  0.043840            0           0           0  
      6.021465  4.043526  2.063565            0           0           0  
      6.076093  6.058730  8.076240            0           0           0  
      4.096601  6.170655  1.968672            0           0           0  
      8.031033  0.000000  4.047853            0           0           0  
      2.017445  0.000000  6.121300            0           0           0  
      1.968672  1.916405  4.096601            0           0           0  
      8.076240  2.028314  6.076093            0           0           0  
      4.055940  0.000000  4.055940            0           0           0  
      6.067780  0.000000  6.067780            0           0           0  
      6.046058  2.048984  4.058730            0           0           0  
      4.058730  2.048984  6.046058            0           0           0  
      0.043840  4.043526  4.001708            0           0           0  
      2.063565  4.043526  6.021465            0           0           0  
      1.968672  6.170655  4.096601            0           0           0  
      8.076240  6.058730  6.076093            0           0           0  
      6.057889  4.043526  6.057889            0           0           0  
      6.046058  6.038068  4.058730            0           0           0  
      4.058730  6.038068  6.046058            0           0           0  
      3.032644  4.043526  3.032644    -0.707057    0.000000   -0.707156  
 
 Finite differences POTIM=  1.500000000000000E-002
  LATTYP: Found a simple cubic cell.
 ALAT       =     8.0870520000
  
  Lattice vectors:
  
 A1 = (   8.0870520000,   0.0000000000,   0.0000000000)
 A2 = (   0.0000000000,   8.0870520000,   0.0000000000)
 A3 = (   0.0000000000,   0.0000000000,   8.0870520000)
 Subroutine PRICEL returns:
 Original cell was already a primitive cell.
 

Analysis of symmetry for initial positions (statically):

 Routine SETGRP: Setting up the symmetry group for a 
 simple cubic supercell.


 Subroutine GETGRP returns: Found  8 space group operations
 (whereof  4 operations were pure point group operations)
 out of a pool of 48 trial point group operations.


The static configuration has the point symmetry C_2v.
 The point group associated with its full space group is D_2h.

Analysis of symmetry for dynamics (positions and initial velocities):

 Subroutine DYNSYM returns: Found  8 space group operations
 (whereof  4 operations were pure point group operations)
 out of a pool of  8 trial space group operations
 (whereof  4 operations were pure point group operations)
 and found also     1 'primitive' translations


The dynamic configuration has the point symmetry C_2v.
 The point group associated with its full space group is D_2h.

Analysis of constrained symmetry for selective dynamics:

 Subroutine DYNSYM returns: Found  8 space group operations
 (whereof  4 operations were pure point group operations)
 out of a pool of  8 trial space group operations
 (whereof  4 operations were pure point group operations)
 and found also     1 'primitive' translations


The constrained configuration has the point symmetry C_2v.
 The point group associated with its full space group is D_2h.
 
 KPOINTS: Automatic kpoint scheme                 

Automatic generation of k-mesh.
 
 Subroutine IBZKPT returns following result:
 ===========================================
 
 Found      2 irreducible k-points:
 
 Following reciprocal coordinates:
            Coordinates               Weight
  0.250000  0.250000  0.250000      4.000000
 -0.250000  0.250000  0.250000      4.000000
 
 Following cartesian coordinates:
            Coordinates               Weight
  0.030914  0.030914  0.030914      4.000000
 -0.030914  0.030914  0.030914      4.000000
 
     LOOP+:  cpu time   10.91: real time   10.92
    4ORBIT:  cpu time    0.00: real time    0.00

 total amount of memory used by VASP on root node  59241. kBytes
========================================================================

   base      :    30000. kBytes
   nonl-proj :     3893. kBytes
   fftplans  :     2983. kBytes
   grid      :    21024. kBytes
   one-center:       95. kBytes
   wavefun   :     1246. kBytes
 
  
  
 General timing and accounting informations for this job:
 ========================================================
  
                  Total CPU time used (sec):      102.953
                            User time (sec):      102.773
                          System time (sec):        0.180
                         Elapsed time (sec):      103.260
  
                   Maximum memory used (kb):           0.
                   Average memory used (kb):           0.
  
                          Minor page faults:        23603
                          Major page faults:            0
                 Voluntary context switches:         3874
