 vasp.5.2.2 15Apr09 complex 
 executed on             LinuxIFC date 2017.03.17  11:31:58
 running on   12 nodes
 distr:  one band on    1 nodes,   12 groups


--------------------------------------------------------------------------------------------------------


 INCAR:
 POTCAR:   PAW_PBE Al 04Jan2001                   
 POTCAR:   PAW_PBE Mg 05Jan2001                   
 POTCAR:   PAW_PBE Al 04Jan2001                   
   VRHFIN =Al: s2p1                                                             
   LEXCH  = PE                                                                  
   EATOM  =    53.5387 eV,    3.9350 Ry                                         
                                                                                
   TITEL  = PAW_PBE Al 04Jan2001                                                
   LULTRA =        F    use ultrasoft PP ?                                      
   IUNSCR =        1    unscreen: 0-lin 1-nonlin 2-no                           
   RPACOR =    1.500    partial core radius                                     
   POMASS =   26.982; ZVAL   =    3.000    mass and valenz                      
   RCORE  =    1.900    outmost cutoff radius                                   
   RWIGS  =    2.650; RWIGS  =    1.402    wigner-seitz radius (au A)           
   ENMAX  =  240.300; ENMIN  =  180.225 eV                                      
   ICORE  =        2    local potential                                         
   LCOR   =        T    correct aug charges                                     
   LPAW   =        T    paw PP                                                  
   EAUG   =  291.052                                                            
   DEXC   =    -.041                                                            
   RMAX   =    2.974    core radius for proj-oper                               
   RAUG   =    1.300    factor for augmentation sphere                          
   RDEP   =    1.966    radius for radial grids                                 
   QCUT   =   -4.203; QGAM   =    8.405    optimization parameters              
                                                                                
   Description                                                                  
     l     E      TYP  RCUT    TYP  RCUT                                        
     0   .000     23  1.900                                                     
     0   .000     23  1.900                                                     
     1   .000     23  1.900                                                     
     1  1.000     23  1.900                                                     
     2   .000      7  1.900                                                     
  local pseudopotential read in
  partial core-charges read in
  atomic valenz-charges read in
  non local Contribution for L=           0  read in
    real space projection operators read in
  non local Contribution for L=           0  read in
    real space projection operators read in
  non local Contribution for L=           1  read in
    real space projection operators read in
  non local Contribution for L=           1  read in
    real space projection operators read in
    PAW grid and wavefunctions read in
 
   number of l-projection  operators is LMAX  =           4
   number of lm-projection operators is LMMAX =           8
 
 POTCAR:   PAW_PBE Mg 05Jan2001                   
   VRHFIN =Mg: s2p0                                                             
   LEXCH  = PE                                                                  
   EATOM  =    23.0029 eV,    1.6907 Ry                                         
                                                                                
   TITEL  = PAW_PBE Mg 05Jan2001                                                
   LULTRA =        F    use ultrasoft PP ?                                      
   IUNSCR =        1    unscreen: 0-lin 1-nonlin 2-no                           
   RPACOR =    2.000    partial core radius                                     
   POMASS =   24.305; ZVAL   =    2.000    mass and valenz                      
   RCORE  =    2.000    outmost cutoff radius                                   
   RWIGS  =    2.880; RWIGS  =    1.524    wigner-seitz radius (au A)           
   ENMAX  =  210.012; ENMIN  =  157.509 eV                                      
   ICORE  =        2    local potential                                         
   LCOR   =        T    correct aug charges                                     
   LPAW   =        T    paw PP                                                  
   EAUG   =  274.554                                                            
   DEXC   =    -.136                                                            
   RMAX   =    3.182    core radius for proj-oper                               
   RAUG   =    1.300    factor for augmentation sphere                          
   RDEP   =    2.025    radius for radial grids                                 
   QCUT   =   -3.929; QGAM   =    7.858    optimization parameters              
                                                                                
   Description                                                                  
     l     E      TYP  RCUT    TYP  RCUT                                        
     0   .000     23  2.000                                                     
     0  2.000     23  2.000                                                     
     1   .000     23  2.000                                                     
     1  2.000     23  2.000                                                     
     2   .000     23  2.000                                                     
  local pseudopotential read in
  partial core-charges read in
  atomic valenz-charges read in
  non local Contribution for L=           0  read in
    real space projection operators read in
  non local Contribution for L=           0  read in
    real space projection operators read in
  non local Contribution for L=           1  read in
    real space projection operators read in
  non local Contribution for L=           1  read in
    real space projection operators read in
    PAW grid and wavefunctions read in
 
   number of l-projection  operators is LMAX  =           4
   number of lm-projection operators is LMMAX =           8
 

 ----------------------------------------------------------------------------- 
|                                                                             |
|  ADVICE TO THIS USER RUNNING 'VASP/VAMP'   (HEAR YOUR MASTER'S VOICE ...):  |
|                                                                             |
|      You have a (more or less) 'large supercell' and for larger cells       |
|      it might be more efficient to use real space projection operators      |
|      So try LREAL= Auto  in the INCAR   file.                               |
|      Mind: If you want to do a very accurate calculations keep the          |
|      reciprocal projection scheme          (i.e. LREAL=.FALSE.)             |
|                                                                             |
 ----------------------------------------------------------------------------- 

 PAW_PBE Al 04Jan2001                   :
 energy of atom  1       EATOM=  -53.5387
 kinetic energy error for atom=    0.0011 (will be added to EATOM!!)
 PAW_PBE Mg 05Jan2001                   :
 energy of atom  2       EATOM=  -23.0029
 kinetic energy error for atom=    0.0002 (will be added to EATOM!!)
 
 
 POSCAR: Mg1 Al30                                
  positions in direct lattice
  velocities in cartesian coordinates
 exchange correlation table for  LEXCH =        8
   RHO(1)=    0.500       N(1)  =     2000
   RHO(2)=  100.500       N(2)  =     4000

 VTST: version 2.03d, (02/18/09)

 CHAIN: initializing optimizer
 
 OPT: Using VASP Dynamics algorithm
 CHAIN: Read ICHAIN            0
 


--------------------------------------------------------------------------------------------------------


 ion  position               nearest neighbor table
   1  1.000  0.000  1.000-   6 2.84  17 2.84  14 2.84   7 2.84  19 2.84  27 2.84  21 2.84   2 2.84
                             4 2.86  10 2.86  11 2.86   3 2.86
   2  0.248  0.000  0.248-   1 2.84   3 2.85   4 2.85  10 2.85  11 2.85   5 2.88  16 2.88  15 2.88
                             8 2.88  18 2.88  26 2.88  20 2.89
   3  0.250  0.250  0.000-  17 2.84   2 2.85   5 2.85  19 2.86   4 2.86   1 2.86   9 2.87  12 2.88
                            25 2.88   8 2.88  23 2.88  31 2.92
   4  0.000  0.250  0.250-   6 2.84   2 2.85  16 2.85   7 2.86   3 2.86   1 2.86   9 2.87  24 2.88
                            13 2.88  18 2.88  22 2.88  31 2.92
   5  0.500  0.000  0.996-  17 2.82  21 2.84   3 2.85  10 2.85   8 2.87  15 2.87  14 2.87   7 2.87
                             2 2.88  23 2.89  30 2.89   6 2.90
   6  0.753  0.000  0.250-  16 2.82  15 2.84   8 2.84   1 2.84   4 2.84  11 2.84   7 2.86  14 2.86
                            22 2.88  29 2.88  20 2.88   5 2.90
   7  0.752  0.249  0.999-  19 2.82   1 2.84  21 2.84   9 2.85   8 2.85   4 2.86   6 2.86  12 2.86
                             5 2.87  13 2.88  28 2.88  23 2.91
   8  0.505  0.247  0.250-  22 2.80  13 2.83   6 2.84  31 2.84   7 2.85  20 2.85   5 2.87   2 2.88
                             3 2.88  12 2.89  18 2.91
   9  0.999  0.500  0.999-   7 2.85  14 2.85  19 2.85  27 2.85  10 2.87   3 2.87  11 2.87   4 2.87
                            25 2.88  13 2.88  28 2.90  31 2.99
  10  0.250  0.750  0.000-  17 2.84   2 2.85   5 2.85  27 2.86  11 2.86   1 2.86   9 2.87  12 2.88
                            25 2.88  15 2.88  30 2.88  31 2.92
  11  0.000  0.750  0.250-   6 2.84   2 2.85  16 2.85  14 2.86  10 2.86   1 2.86   9 2.87  24 2.88
                            13 2.88  26 2.88  29 2.88  31 2.92
  12  0.502  0.500  0.997-  28 2.83  13 2.85  23 2.85  30 2.85  14 2.86   7 2.86  25 2.87   3 2.88
                            10 2.88   8 2.89  15 2.89  31 2.89
  13  0.747  0.500  0.251-  22 2.82  29 2.82   8 2.83  15 2.83  12 2.85  24 2.87   7 2.88  14 2.88
                             4 2.88  11 2.88   9 2.88
  14  0.752  0.751  0.999-  27 2.82   1 2.84  21 2.84   9 2.85  15 2.85  11 2.86   6 2.86  12 2.86
                             5 2.87  13 2.88  28 2.88  30 2.91
  15  0.505  0.753  0.250-  29 2.80  13 2.83   6 2.84  31 2.84  14 2.85  20 2.85   5 2.87   2 2.88
                            10 2.88  12 2.89  26 2.91
  16  0.996  0.000  0.500-   6 2.82  21 2.84  11 2.85   4 2.85  18 2.87  26 2.87  19 2.87  27 2.87
                             2 2.88  22 2.89  29 2.89  17 2.90
  17  0.250  0.000  0.753-   5 2.82  18 2.84  26 2.84   1 2.84   3 2.84  10 2.84  19 2.86  27 2.86
                            23 2.88  30 2.88  20 2.88  16 2.90
  18  0.250  0.247  0.505-  23 2.80  25 2.83  17 2.84  31 2.84  19 2.85  20 2.85  16 2.87   2 2.88
                             4 2.88  24 2.89   8 2.91
  19  0.999  0.249  0.752-   7 2.82   1 2.84  21 2.84   9 2.85  18 2.85   3 2.86  17 2.86  24 2.86
                            16 2.87  25 2.88  28 2.88  22 2.91
  20  0.501  0.000  0.501-  22 2.85  23 2.85  29 2.85  30 2.85  15 2.85  26 2.85  18 2.85   8 2.85
                            21 2.86  17 2.88   6 2.88   2 2.89
  21  0.751  0.000  0.751-   5 2.84  16 2.84   1 2.84  14 2.84   7 2.84  19 2.84  27 2.84  20 2.86
                            22 2.90  29 2.90  23 2.90  30 2.90
  22  0.745  0.254  0.498-   8 2.80  23 2.81  28 2.82  13 2.82  20 2.85  24 2.85   6 2.88   4 2.88
                            16 2.89  21 2.90  19 2.91
  23  0.498  0.254  0.745-  18 2.80  22 2.81  28 2.82  25 2.82  20 2.85  12 2.85  17 2.88   3 2.88
                             5 2.89  21 2.90   7 2.91
  24  0.997  0.500  0.502-  28 2.83  25 2.85  22 2.85  29 2.85  19 2.86  27 2.86  13 2.87  11 2.88
                             4 2.88  26 2.89  18 2.89  31 2.89
  25  0.251  0.500  0.747-  23 2.82  30 2.82  26 2.83  18 2.83  24 2.85  12 2.87  27 2.88  19 2.88
                             3 2.88  10 2.88   9 2.88
  26  0.250  0.753  0.505-  30 2.80  25 2.83  17 2.84  31 2.84  27 2.85  20 2.85  16 2.87   2 2.88
                            11 2.88  24 2.89  15 2.91
  27  0.999  0.751  0.752-  14 2.82   1 2.84  21 2.84   9 2.85  26 2.85  10 2.86  17 2.86  24 2.86
                            16 2.87  25 2.88  28 2.88  29 2.91
  28  0.746  0.500  0.746-  22 2.82  23 2.82  29 2.82  30 2.82  12 2.83  24 2.83  19 2.88  27 2.88
                             7 2.88  14 2.88   9 2.90
  29  0.745  0.746  0.498-  15 2.80  30 2.81  28 2.82  13 2.82  20 2.85  24 2.85   6 2.88  11 2.88
                            16 2.89  21 2.90  27 2.91
  30  0.498  0.746  0.745-  26 2.80  29 2.81  28 2.82  25 2.82  20 2.85  12 2.85  17 2.88  10 2.88
                             5 2.89  21 2.90  14 2.91
  31  0.261  0.500  0.261-  18 2.84  26 2.84   8 2.84  15 2.84  24 2.89  12 2.89   3 2.92  10 2.92
                            11 2.92   4 2.92   9 2.99
 
  LATTYP: Found a simple cubic cell.
 ALAT       =     8.0870520000
  
  Lattice vectors:
  
 A1 = (   8.0870520000,   0.0000000000,   0.0000000000)
 A2 = (   0.0000000000,   8.0870520000,   0.0000000000)
 A3 = (   0.0000000000,   0.0000000000,   8.0870520000)
 Subroutine PRICEL returns:
 Original cell was already a primitive cell.
 

Analysis of symmetry for initial positions (statically):

 Routine SETGRP: Setting up the symmetry group for a 
 simple cubic supercell.


 Subroutine GETGRP returns: Found  4 space group operations
 (whereof  4 operations were pure point group operations)
 out of a pool of 48 trial point group operations.


The static configuration has the point symmetry C_2v.

Analysis of symmetry for dynamics (positions and initial velocities):

 Subroutine DYNSYM returns: Found  4 space group operations
 (whereof  4 operations were pure point group operations)
 out of a pool of  4 trial space group operations
 (whereof  4 operations were pure point group operations)
 and found also     1 'primitive' translations


The dynamic configuration has the point symmetry C_2v.

Analysis of constrained symmetry for selective dynamics:

 Subroutine DYNSYM returns: Found  4 space group operations
 (whereof  4 operations were pure point group operations)
 out of a pool of  4 trial space group operations
 (whereof  4 operations were pure point group operations)
 and found also     1 'primitive' translations


The constrained configuration has the point symmetry C_2v.
 
 
 KPOINTS: Automatic kpoint scheme                 

Automatic generation of k-mesh.
 
 Subroutine IBZKPT returns following result:
 ===========================================
 
 Found      2 irreducible k-points:
 
 Following reciprocal coordinates:
            Coordinates               Weight
  0.250000  0.250000  0.250000      4.000000
 -0.250000  0.250000  0.250000      4.000000
 
 Following cartesian coordinates:
            Coordinates               Weight
  0.030914  0.030914  0.030914      4.000000
 -0.030914  0.030914  0.030914      4.000000
 
 
 Subroutine IBZKPT_HF returns following result:
 ==============================================
 
 Found      8 k-points in 1st BZ
 the following      8 k-points will be used (e.g. in the exchange kernel)
 Following reciprocal coordinates:   # in IRBZ
  0.250000  0.250000  0.250000       1
 -0.250000  0.250000  0.250000       2
  0.250000 -0.250000  0.250000       1
  0.250000 -0.250000 -0.250000       2
 -0.250000 -0.250000  0.250000       2
  0.250000  0.250000 -0.250000       2
 -0.250000 -0.250000 -0.250000       1
 -0.250000  0.250000 -0.250000       1


--------------------------------------------------------------------------------------------------------




 Dimension of arrays:
   k-points           NKPTS =      2   k-points in BZ     NKDIM =      2   number of bands    NBANDS=     72
   number of dos      NEDOS =    301   number of ions     NIONS =     31
   non local maximal  LDIM  =      4   non local SUM 2l+1 LMDIM =      8
   total plane-waves  NPLWV = 110592
   max r-space proj   IRMAX =      1   max aug-charges    IRDMAX=   9081
   dimension x,y,z NGX =    48 NGY =   48 NGZ =   48
   dimension x,y,z NGXF=    96 NGYF=   96 NGZF=   96
   support grid    NGXF=    96 NGYF=   96 NGZF=   96
   ions per type =              30   1
 NGX,Y,Z   is equivalent  to a cutoff of   9.87,  9.87,  9.87 a.u.
 NGXF,Y,Z  is equivalent  to a cutoff of  19.73, 19.73, 19.73 a.u.


 I would recommend the setting:
   dimension x,y,z NGX =    46 NGY =   46 NGZ =   46
 SYSTEM =  unknown system                          
 POSCAR =  Mg1 Al30                                

 Startparameter for this run:
   NWRITE =      2    write-flag & timer
   PREC   = accura    medium, high low
   ISTART =      0    job   : 0-new  1-cont  2-samecut
   ICHARG =      2    charge: 1-file 2-atom 10-const
   ISPIN  =      1    spin polarized calculation?
   LNONCOLLINEAR =      F non collinear calculations
   LSORBIT =      F    spin-orbit coupling
   INIWAV =      1    electr: 0-lowe 1-rand  2-diag
   LASPH  =      F    aspherical Exc in radial PAW
   METAGGA=      F    non-selfconsistent MetaGGA calc.

 Electronic Relaxation 1
   ENCUT  =  300.0 eV  22.05 Ry    4.70 a.u.  11.42 11.42 11.42*2*pi/ulx,y,z
   ENINI  =  300.0     initial cutoff
   ENAUG  =  291.1 eV  augmentation charge cutoff
   NELM   =     60;   NELMIN=  2; NELMDL=-12     # of ELM steps 
   EDIFF  = 0.1E-05   stopping-criterion for ELM
   LREAL  =      F    real-space projection
   LCOMPAT=      F    compatible to vasp.4.4
   LREAL_COMPAT= F    compatible to vasp.4.5.1-3
   GGA_COMPAT  = T    GGA compatible to vasp.4.4-vasp.4.6
   LMAXPAW     = -100 max onsite density
   LMAXMIX     =    2 max onsite mixed and CHGCAR
   VOSKOWN=      0    Vosko Wilk Nusair interpolation
   ROPT   =    0.00000   0.00000
 Ionic relaxation
   EDIFFG = 0.5E-01   stopping-criterion for IOM
   NSW    =    382    number of steps for IOM
   NBLOCK =      1;   KBLOCK =    191    inner block; outer block 
   IBRION =      5    ionic relax: 0-MD 1-quasi-New 2-CG
   NFREE  =      2    steps in history (QN), initial steepest desc. (CG)
   ISIF   =      2    stress and relaxation
   IWAVPR =     11    prediction:  0-non 1-charg 2-wave 3-comb
   ISYM   =      2    0-nonsym 1-usesym 2-fastsym
   LCORR  =      T    Harris-Foulkes like correction to forces

   POTIM  = 0.5000    time-step for ionic-motion
   TEIN   =    0.0    initial temperature
   TEBEG  =    0.0;   TEEND  =   0.0 temperature during run
   SMASS  =  -3.00    Nose mass-parameter (am)
   estimated Nose-frequenzy (Omega)   =  0.10E-29 period in steps =****** mass=  -0.149E-26a.u.
   NPACO  =    256;   APACO  = 16.0  distance and # of slots for P.C.
   PSTRESS=    0.0 pullay stress

  Mass of Ions in am
   POMASS =  26.98 24.30
  Ionic Valenz
   ZVAL   =   3.00  2.00
  Atomic Wigner-Seitz radii
   RWIGS  =  -1.00 -1.00
   NELECT =      92.0000    total number of electrons
   NUPDOWN=      -1.0000    fix difference up-down

 DOS related values:
   EMIN   =  10.00;   EMAX   =-10.00  energy-range for DOS
   EFERMI =   0.00
   ISMEAR =     1;   SIGMA  =   0.20  broadening in eV -4-tet -1-fermi 0-gaus

 Electronic relaxation 2 (details)
   IALGO  =     48    algorithm
   LDIAG  =      T    sub-space diagonalisation
   IMIX   =      4    mixing-type and parameters
     AMIX     =   0.40;   BMIX     =  1.00
     AMIX_MAG =   1.60;   BMIX_MAG =  1.00
     AMIN     =   0.10
     WC   =   100.;   INIMIX=   1;  MIXPRE=   1

 Intra band minimization:
   WEIMIN = 0.0010     energy-eigenvalue tresh-hold
   EBREAK =  0.40E-08  absolut break condition
   DEPER  =   0.30     relativ break condition  

   TIME   =   0.40     timestep for ELM

  volume/ion in A,a.u.               =      17.06       115.13
  Fermi-wavevector in a.u.,A,eV,Ry     =   0.913862  1.726948 11.362816  0.835143
  Thomas-Fermi vector in A             =   2.038422
 
 Write flags
   LWAVE  =      F    write WAVECAR
   LCHARG =      F    write CHGCAR
   LVTOT  =      F    write LOCPOT, local potential
   LELF   =      F    write electronic localiz. function (ELF)
   LORBIT =      0    0 simple, 1 ext, 2 COOP (PROOUT)


 Dipole corrections
   LMONO  =      F    monopole corrections only (constant potential shift)
   LDIPOL =      F    correct potential (dipole corrections)
   IDIPOL =      0    1-x, 2-y, 3-z, 4-all directions 
   EPSILON=  1.0000000 bulk dielectric constant

 Exchange correlation treatment:
   GGA     =    --    GGA type
   LEXCH   =     8    internal setting for exchange type
   VOSKOWN=      0    Vosko Wilk Nusair interpolation
   LHFCALC =     F    Hartree Fock is set to
   LHFONE  =     F    Hartree Fock one center treatment
   AEXX    =    0.0000 exact exchange contribution

 Linear response parameters
   LEPSILON=     F    determine dielectric tensor
   LRPA    =     F    only Hartree local field effects (RPA)
   LNABLA  =     F    use nabla operator in PAW spheres
   LVEL    =     F    velocity operator in full k-point grid
   LINTERFAST=   F  fast interpolation
   KINTER  =     0    interpolate to denser k-point grid
   CSHIFT  =0.1000    complex shift for real part using Kramers Kronig
   OMEGAMAX=  -1.0    maximum frequency

 Orbital magnetization related:
   ORBITALMAG=     F  switch on orbital magnetization
   LCHIMAG   =     F  perturbation theory with respect to B field



--------------------------------------------------------------------------------------------------------


 finite differences
   using selective dynamics as specified on POSCAR
 charge density and potential will be updated during run
 non-spin polarized calculation
 RMM-DIIS sequential band-by-band
 perform sub-space diagonalisation
    before iterative eigenvector-optimisation
 modified Broyden-mixing scheme, WC =      100.0
 initial mixing is a Kerker type mixing with AMIX =  0.4000 and BMIX =      1.0000
 Hartree-type preconditioning will be used
 using additional bands           26
 reciprocal scheme for non local part
 use partial core corrections
 calculate Harris-corrections to forces 
   (improved forces if not selfconsistent)
 use gradient corrections 
 use of overlap-Matrix (Vanderbilt PP)
 Methfessel and Paxton  Order N= 1 SIGMA  =   0.20


--------------------------------------------------------------------------------------------------------


  energy-cutoff  :      300.00
  volume of cell :      528.90
      direct lattice vectors                 reciprocal lattice vectors
     8.087052000  0.000000000  0.000000000     0.123654454  0.000000000  0.000000000
     0.000000000  8.087052000  0.000000000     0.000000000  0.123654454  0.000000000
     0.000000000  0.000000000  8.087052000     0.000000000  0.000000000  0.123654454

  length of vectors
     8.087052000  8.087052000  8.087052000     0.123654454  0.123654454  0.123654454


 
 k-points in units of 2pi/SCALE and weight: Automatic kpoint scheme                 
   0.03091361  0.03091361  0.03091361       0.500
  -0.03091361  0.03091361  0.03091361       0.500
 
 k-points in reciprocal lattice and weights: Automatic kpoint scheme                 
   0.25000000  0.25000000  0.25000000       0.500
  -0.25000000  0.25000000  0.25000000       0.500
 
 position of ions in fractional coordinates (direct lattice) 
   0.99956200  0.00000000  0.99956200
   0.24825000  0.00000000  0.24825000
   0.25002300  0.24960900  0.00033000
   0.00033000  0.24960900  0.25002300
   0.49964100  0.00000000  0.99616300
   0.75336300  0.00000000  0.24988300
   0.75206500  0.24905400  0.99902700
   0.50456100  0.24748200  0.24977900
   0.99906600  0.50000000  0.99906600
   0.25002300  0.75039100  0.00033000
   0.00033000  0.75039100  0.25002300
   0.50249100  0.50000000  0.99741400
   0.74687400  0.50000000  0.25123900
   0.75206500  0.75094600  0.99902700
   0.50456100  0.75251800  0.24977900
   0.99616300  0.00000000  0.49964100
   0.24988300  0.00000000  0.75336300
   0.24977900  0.24748200  0.50456100
   0.99902700  0.24905400  0.75206500
   0.50078600  0.00000000  0.50078600
   0.75104700  0.00000000  0.75104700
   0.74459400  0.25440000  0.49849800
   0.49849800  0.25440000  0.74459400
   0.99741400  0.50000000  0.50249100
   0.25123900  0.50000000  0.74687400
   0.24977900  0.75251800  0.50456100
   0.99902700  0.75094600  0.75206500
   0.74567600  0.50000000  0.74567600
   0.74459400  0.74560000  0.49849800
   0.49849800  0.74560000  0.74459400
   0.26078800  0.50000000  0.26078800
 
 position of ions in cartesian coordinates  (Angst):
   8.08350987  0.00000000  8.08350987
   2.00761066  0.00000000  2.00761066
   2.02194900  2.01860096  0.00266873
   0.00266873  2.01860096  2.02194900
   4.04062275  0.00000000  8.05602198
   6.09248576  0.00000000  2.02081681
   6.08198876  2.01411265  8.07918330
   4.08041104  2.00139980  2.01997576
   8.07949869  4.04352600  8.07949869
   2.02194900  6.06845104  0.00266873
   0.00266873  6.06845104  2.02194900
   4.06367085  4.04352600  8.06613888
   6.04000888  4.04352600  2.03178286
   6.08198876  6.07293935  8.07918330
   4.08041104  6.08565220  2.01997576
   8.05602198  0.00000000  4.04062275
   2.02081681  0.00000000  6.09248576
   2.01997576  2.00139980  4.08041104
   8.07918330  2.01411265  6.08198876
   4.04988242  0.00000000  4.04988242
   6.07375614  0.00000000  6.07375614
   6.02157040  2.05734603  4.03137925
   4.03137925  2.05734603  6.02157040
   8.06613888  4.04352600  4.06367085
   2.03178286  4.04352600  6.04000888
   2.01997576  6.08565220  4.08041104
   8.07918330  6.07293935  6.08198876
   6.03032059  4.04352600  6.03032059
   6.02157040  6.02970597  4.03137925
   4.03137925  6.02970597  6.02157040
   2.10900612  4.04352600  2.10900612
 


--------------------------------------------------------------------------------------------------------


 k-point  1 :  0.25000.25000.2500  plane waves:    6238
 k-point  2 :  -.25000.25000.2500  plane waves:    6238

 maximum and minimum number of plane-waves per node :    6238   6238

 maximum number of plane-waves:    6238
 maximal index in each direction: 
   IXMAX= 11   IYMAX= 11   IZMAX= 11
   IXMIN=-11   IYMIN=-11   IZMIN=-11

 NGX is ok and might be reduce to  46
 NGY is ok and might be reduce to  46
 NGZ is ok and might be reduce to  46

 serial   3D FFT for wavefunctions
 parallel 3D FFT for charge:
    minimum data exchange during FFTs selected (reduces bandwidth)


 total amount of memory used by VASP on root node  60642. kBytes
========================================================================

   base      :    30000. kBytes
   nonl-proj :     4692. kBytes
   fftplans  :     2983. kBytes
   grid      :    21626. kBytes
   one-center:       95. kBytes
   wavefun   :     1246. kBytes
 
 Broyden mixing: mesh for mixing (old mesh)
   NGX = 23   NGY = 23   NGZ = 23
  (NGX  = 96   NGY  = 96   NGZ  = 96)
  gives a total of  12167 points

 initial charge density was supplied:
 charge density of overlapping atoms calculated
 number of electron   92.0000000 magnetization 
 keeping initial charge density in first step


--------------------------------------------------------------------------------------------------------


 Maximum index for augmentation-charges          640 (set IRDMAX)


--------------------------------------------------------------------------------------------------------


 First call to EWALD:  gamma=   0.219
 Maximum number of real-space cells 3x 3x 3
 Maximum number of reciprocal cells 3x 3x 3

    FEWALD:  cpu time    0.01: real time    0.01
   RESPFUN:  cpu time    0.00: real time    0.00


----------------------------------------- Iteration    1(   1)  ---------------------------------------


    POTLOK:  cpu time    0.15: real time    0.15
    SETDIJ:  cpu time    0.01: real time    0.01
    EDDIAG:  cpu time    0.30: real time    0.30
  RMM-DIIS:  cpu time    0.69: real time    0.69
    ORTHCH:  cpu time    0.02: real time    0.02
       DOS:  cpu time    0.00: real time    0.00
    --------------------------------------------
      LOOP:  cpu time    1.17: real time    1.18

 eigenvalue-minimisations  :   144
 total energy-change (2. order) : 0.2319617E+03  (-0.1549761E+04)
 number of electron   92.0000000 magnetization 
 augmentation part    92.0000000 magnetization 

 Free energy of the ion-electron system (eV)
  ---------------------------------------------------
  alpha Z        PSCENC =        -7.38313139
  Ewald energy   TEWEN  =     -2181.67816138
  -1/2 Hartree   DENC   =       -23.88523760
  -exchange  EXHF       =         0.00000000
  -V(xc)+E(xc)   XCENC  =      -796.35084833
  PAW double counting   =      1078.21717227     -108.50372521
  entropy T*S    EENTRO =        -0.02310151
  eigenvalues    EBANDS =       642.43729058
  atomic energy  EATOM  =      1629.13144109
  ---------------------------------------------------
  free energy    TOTEN  =       231.96169853 eV

  energy without entropy =      231.98480004  energy(sigma->0) =      231.96939903


--------------------------------------------------------------------------------------------------------




----------------------------------------- Iteration    1(   2)  ---------------------------------------


    EDDIAG:  cpu time    0.30: real time    0.30
  RMM-DIIS:  cpu time    0.68: real time    0.69
    ORTHCH:  cpu time    0.02: real time    0.02
       DOS:  cpu time    0.00: real time    0.00
    --------------------------------------------
      LOOP:  cpu time    1.00: real time    1.00

 eigenvalue-minimisations  :   144
 total energy-change (2. order) :-0.2709713E+03  (-0.2589104E+03)
 number of electron   92.0000000 magnetization 
 augmentation part    92.0000000 magnetization 

 Free energy of the ion-electron system (eV)
  ---------------------------------------------------
  alpha Z        PSCENC =        -7.38313139
  Ewald energy   TEWEN  =     -2181.67816138
  -1/2 Hartree   DENC   =       -23.88523760
  -exchange  EXHF       =         0.00000000
  -V(xc)+E(xc)   XCENC  =      -796.35084833
  PAW double counting   =      1078.21717227     -108.50372521
  entropy T*S    EENTRO =         0.01174407
  eigenvalues    EBANDS =       371.43113602
  atomic energy  EATOM  =      1629.13144109
  ---------------------------------------------------
  free energy    TOTEN  =       -39.00961045 eV

  energy without entropy =      -39.02135452  energy(sigma->0) =      -39.01352514


--------------------------------------------------------------------------------------------------------




----------------------------------------- Iteration    1(   3)  ---------------------------------------


    EDDIAG:  cpu time    0.30: real time    0.30
  RMM-DIIS:  cpu time    0.68: real time    0.68
    ORTHCH:  cpu time    0.02: real time    0.02
       DOS:  cpu time    0.00: real time    0.00
    --------------------------------------------
      LOOP:  cpu time    1.00: real time    1.00

 eigenvalue-minimisations  :   144
 total energy-change (2. order) :-0.5548953E+02  (-0.5382913E+02)
 number of electron   92.0000000 magnetization 
 augmentation part    92.0000000 magnetization 

 Free energy of the ion-electron system (eV)
  ---------------------------------------------------
  alpha Z        PSCENC =        -7.38313139
  Ewald energy   TEWEN  =     -2181.67816138
  -1/2 Hartree   DENC   =       -23.88523760
  -exchange  EXHF       =         0.00000000
  -V(xc)+E(xc)   XCENC  =      -796.35084833
  PAW double counting   =      1078.21717227     -108.50372521
  entropy T*S    EENTRO =        -0.03168425
  eigenvalues    EBANDS =       315.98503843
  atomic energy  EATOM  =      1629.13144109
  ---------------------------------------------------
  free energy    TOTEN  =       -94.49913637 eV

  energy without entropy =      -94.46745212  energy(sigma->0) =      -94.48857495


--------------------------------------------------------------------------------------------------------




----------------------------------------- Iteration    1(   4)  ---------------------------------------


    EDDIAG:  cpu time    0.30: real time    0.30
  RMM-DIIS:  cpu time    0.68: real time    0.68
    ORTHCH:  cpu time    0.02: real time    0.02
       DOS:  cpu time    0.00: real time    0.00
    --------------------------------------------
      LOOP:  cpu time    1.00: real time    1.00

 eigenvalue-minimisations  :   144
 total energy-change (2. order) :-0.1270859E+02  (-0.1094861E+02)
 number of electron   92.0000000 magnetization 
 augmentation part    92.0000000 magnetization 

 Free energy of the ion-electron system (eV)
  ---------------------------------------------------
  alpha Z        PSCENC =        -7.38313139
  Ewald energy   TEWEN  =     -2181.67816138
  -1/2 Hartree   DENC   =       -23.88523760
  -exchange  EXHF       =         0.00000000
  -V(xc)+E(xc)   XCENC  =      -796.35084833
  PAW double counting   =      1078.21717227     -108.50372521
  entropy T*S    EENTRO =         0.03688498
  eigenvalues    EBANDS =       303.20787601
  atomic energy  EATOM  =      1629.13144109
  ---------------------------------------------------
  free energy    TOTEN  =      -107.20772955 eV

  energy without entropy =     -107.24461453  energy(sigma->0) =     -107.22002455


--------------------------------------------------------------------------------------------------------




----------------------------------------- Iteration    1(   5)  ---------------------------------------


    EDDIAG:  cpu time    0.30: real time    0.30
  RMM-DIIS:  cpu time    0.68: real time    0.68
    ORTHCH:  cpu time    0.02: real time    0.02
       DOS:  cpu time    0.00: real time    0.00
    --------------------------------------------
      LOOP:  cpu time    0.99: real time    1.00

 eigenvalue-minimisations  :   144
 total energy-change (2. order) :-0.4185600E+01  (-0.3145120E+01)
 number of electron   92.0000000 magnetization 
 augmentation part    92.0000000 magnetization 

 Free energy of the ion-electron system (eV)
  ---------------------------------------------------
  alpha Z        PSCENC =        -7.38313139
  Ewald energy   TEWEN  =     -2181.67816138
  -1/2 Hartree   DENC   =       -23.88523760
  -exchange  EXHF       =         0.00000000
  -V(xc)+E(xc)   XCENC  =      -796.35084833
  PAW double counting   =      1078.21717227     -108.50372521
  entropy T*S    EENTRO =        -0.00970299
  eigenvalues    EBANDS =       299.06886417
  atomic energy  EATOM  =      1629.13144109
  ---------------------------------------------------
  free energy    TOTEN  =      -111.39332937 eV

  energy without entropy =     -111.38362638  energy(sigma->0) =     -111.39009504


--------------------------------------------------------------------------------------------------------




----------------------------------------- Iteration    1(   6)  ---------------------------------------


    EDDIAG:  cpu time    0.30: real time    0.30
  RMM-DIIS:  cpu time    0.68: real time    0.68
    ORTHCH:  cpu time    0.02: real time    0.02
       DOS:  cpu time    0.00: real time    0.00
    --------------------------------------------
      LOOP:  cpu time    1.00: real time    1.00

 eigenvalue-minimisations  :   144
 total energy-change (2. order) :-0.1353360E+01  (-0.1005724E+01)
 number of electron   92.0000000 magnetization 
 augmentation part    92.0000000 magnetization 

 Free energy of the ion-electron system (eV)
  ---------------------------------------------------
  alpha Z        PSCENC =        -7.38313139
  Ewald energy   TEWEN  =     -2181.67816138
  -1/2 Hartree   DENC   =       -23.88523760
  -exchange  EXHF       =         0.00000000
  -V(xc)+E(xc)   XCENC  =      -796.35084833
  PAW double counting   =      1078.21717227     -108.50372521
  entropy T*S    EENTRO =        -0.04013374
  eigenvalues    EBANDS =       297.74593482
  atomic energy  EATOM  =      1629.13144109
  ---------------------------------------------------
  free energy    TOTEN  =      -112.74668947 eV

  energy without entropy =     -112.70655572  energy(sigma->0) =     -112.73331155


--------------------------------------------------------------------------------------------------------




----------------------------------------- Iteration    1(   7)  ---------------------------------------


    EDDIAG:  cpu time    0.30: real time    0.30
  RMM-DIIS:  cpu time    0.68: real time    0.68
    ORTHCH:  cpu time    0.02: real time    0.02
       DOS:  cpu time    0.00: real time    0.00
    --------------------------------------------
      LOOP:  cpu time    1.00: real time    1.00

 eigenvalue-minimisations  :   144
 total energy-change (2. order) :-0.4691564E+00  (-0.3595141E+00)
 number of electron   92.0000000 magnetization 
 augmentation part    92.0000000 magnetization 

 Free energy of the ion-electron system (eV)
  ---------------------------------------------------
  alpha Z        PSCENC =        -7.38313139
  Ewald energy   TEWEN  =     -2181.67816138
  -1/2 Hartree   DENC   =       -23.88523760
  -exchange  EXHF       =         0.00000000
  -V(xc)+E(xc)   XCENC  =      -796.35084833
  PAW double counting   =      1078.21717227     -108.50372521
  entropy T*S    EENTRO =        -0.03632000
  eigenvalues    EBANDS =       297.27296467
  atomic energy  EATOM  =      1629.13144109
  ---------------------------------------------------
  free energy    TOTEN  =      -113.21584587 eV

  energy without entropy =     -113.17952587  energy(sigma->0) =     -113.20373920


--------------------------------------------------------------------------------------------------------




----------------------------------------- Iteration    1(   8)  ---------------------------------------


    EDDIAG:  cpu time    0.30: real time    0.30
  RMM-DIIS:  cpu time    0.68: real time    0.68
    ORTHCH:  cpu time    0.02: real time    0.02
       DOS:  cpu time    0.00: real time    0.00
    --------------------------------------------
      LOOP:  cpu time    0.99: real time    0.99

 eigenvalue-minimisations  :   144
 total energy-change (2. order) :-0.1751315E+00  (-0.1426967E+00)
 number of electron   92.0000000 magnetization 
 augmentation part    92.0000000 magnetization 

 Free energy of the ion-electron system (eV)
  ---------------------------------------------------
  alpha Z        PSCENC =        -7.38313139
  Ewald energy   TEWEN  =     -2181.67816138
  -1/2 Hartree   DENC   =       -23.88523760
  -exchange  EXHF       =         0.00000000
  -V(xc)+E(xc)   XCENC  =      -796.35084833
  PAW double counting   =      1078.21717227     -108.50372521
  entropy T*S    EENTRO =        -0.03312563
  eigenvalues    EBANDS =       297.09463883
  atomic energy  EATOM  =      1629.13144109
  ---------------------------------------------------
  free energy    TOTEN  =      -113.39097734 eV

  energy without entropy =     -113.35785171  energy(sigma->0) =     -113.37993547


--------------------------------------------------------------------------------------------------------




----------------------------------------- Iteration    1(   9)  ---------------------------------------


    EDDIAG:  cpu time    0.30: real time    0.30
  RMM-DIIS:  cpu time    1.40: real time    1.40
    ORTHCH:  cpu time    0.02: real time    0.02
       DOS:  cpu time    0.00: real time    0.00
    --------------------------------------------
      LOOP:  cpu time    1.72: real time    1.72

 eigenvalue-minimisations  :   330
 total energy-change (2. order) :-0.9125493E-01  (-0.8156729E-01)
 number of electron   92.0000000 magnetization 
 augmentation part    92.0000000 magnetization 

 Free energy of the ion-electron system (eV)
  ---------------------------------------------------
  alpha Z        PSCENC =        -7.38313139
  Ewald energy   TEWEN  =     -2181.67816138
  -1/2 Hartree   DENC   =       -23.88523760
  -exchange  EXHF       =         0.00000000
  -V(xc)+E(xc)   XCENC  =      -796.35084833
  PAW double counting   =      1078.21717227     -108.50372521
  entropy T*S    EENTRO =        -0.02771346
  eigenvalues    EBANDS =       296.99797173
  atomic energy  EATOM  =      1629.13144109
  ---------------------------------------------------
  free energy    TOTEN  =      -113.48223227 eV

  energy without entropy =     -113.45451881  energy(sigma->0) =     -113.47299445


--------------------------------------------------------------------------------------------------------




----------------------------------------- Iteration    1(  10)  ---------------------------------------


    EDDIAG:  cpu time    0.30: real time    0.30
  RMM-DIIS:  cpu time    1.37: real time    1.37
    ORTHCH:  cpu time    0.02: real time    0.02
       DOS:  cpu time    0.00: real time    0.00
    --------------------------------------------
      LOOP:  cpu time    1.69: real time    1.69

 eigenvalue-minimisations  :   328
 total energy-change (2. order) :-0.1807037E-01  (-0.1313207E-01)
 number of electron   92.0000000 magnetization 
 augmentation part    92.0000000 magnetization 

 Free energy of the ion-electron system (eV)
  ---------------------------------------------------
  alpha Z        PSCENC =        -7.38313139
  Ewald energy   TEWEN  =     -2181.67816138
  -1/2 Hartree   DENC   =       -23.88523760
  -exchange  EXHF       =         0.00000000
  -V(xc)+E(xc)   XCENC  =      -796.35084833
  PAW double counting   =      1078.21717227     -108.50372521
  entropy T*S    EENTRO =        -0.02637900
  eigenvalues    EBANDS =       296.97856689
  atomic energy  EATOM  =      1629.13144109
  ---------------------------------------------------
  free energy    TOTEN  =      -113.50030265 eV

  energy without entropy =     -113.47392365  energy(sigma->0) =     -113.49150965


--------------------------------------------------------------------------------------------------------




----------------------------------------- Iteration    1(  11)  ---------------------------------------


    EDDIAG:  cpu time    0.30: real time    0.30
  RMM-DIIS:  cpu time    1.36: real time    1.36
    ORTHCH:  cpu time    0.02: real time    0.02
       DOS:  cpu time    0.00: real time    0.00
    --------------------------------------------
      LOOP:  cpu time    1.67: real time    1.67

 eigenvalue-minimisations  :   321
 total energy-change (2. order) :-0.1212763E-02  (-0.7964928E-03)
 number of electron   92.0000000 magnetization 
 augmentation part    92.0000000 magnetization 

 Free energy of the ion-electron system (eV)
  ---------------------------------------------------
  alpha Z        PSCENC =        -7.38313139
  Ewald energy   TEWEN  =     -2181.67816138
  -1/2 Hartree   DENC   =       -23.88523760
  -exchange  EXHF       =         0.00000000
  -V(xc)+E(xc)   XCENC  =      -796.35084833
  PAW double counting   =      1078.21717227     -108.50372521
  entropy T*S    EENTRO =        -0.02624660
  eigenvalues    EBANDS =       296.97722174
  atomic energy  EATOM  =      1629.13144109
  ---------------------------------------------------
  free energy    TOTEN  =      -113.50151541 eV

  energy without entropy =     -113.47526880  energy(sigma->0) =     -113.49276654


--------------------------------------------------------------------------------------------------------




----------------------------------------- Iteration    1(  12)  ---------------------------------------


    EDDIAG:  cpu time    0.30: real time    0.30
  RMM-DIIS:  cpu time    1.13: real time    1.13
    ORTHCH:  cpu time    0.02: real time    0.02
       DOS:  cpu time    0.00: real time    0.00
    CHARGE:  cpu time    0.18: real time    0.18
    MIXING:  cpu time    0.00: real time    0.00
    --------------------------------------------
      LOOP:  cpu time    1.63: real time    1.63

 eigenvalue-minimisations  :   268
 total energy-change (2. order) :-0.2096271E-04  (-0.1759463E-04)
 number of electron   91.9999997 magnetization 
 augmentation part    -1.0976594 magnetization 

 Broyden mixing:
  rms(total) = 0.53622E+00    rms(broyden)= 0.53619E+00
  rms(prec ) = 0.88581E+00
  weight for this iteration     100.00

 Free energy of the ion-electron system (eV)
  ---------------------------------------------------
  alpha Z        PSCENC =        -7.38313139
  Ewald energy   TEWEN  =     -2181.67816138
  -1/2 Hartree   DENC   =       -23.88523760
  -exchange  EXHF       =         0.00000000
  -V(xc)+E(xc)   XCENC  =      -796.35084833
  PAW double counting   =      1078.21717227     -108.50372521
  entropy T*S    EENTRO =        -0.02624246
  eigenvalues    EBANDS =       296.97719663
  atomic energy  EATOM  =      1629.13144109
  ---------------------------------------------------
  free energy    TOTEN  =      -113.50153637 eV

  energy without entropy =     -113.47529391  energy(sigma->0) =     -113.49278888


--------------------------------------------------------------------------------------------------------




----------------------------------------- Iteration    1(  13)  ---------------------------------------


    POTLOK:  cpu time    0.15: real time    0.15
    SETDIJ:  cpu time    0.01: real time    0.01
    EDDIAG:  cpu time    0.30: real time    0.30
  RMM-DIIS:  cpu time    1.19: real time    1.19
    ORTHCH:  cpu time    0.02: real time    0.02
       DOS:  cpu time    0.00: real time    0.00
    CHARGE:  cpu time    0.18: real time    0.18
    MIXING:  cpu time    0.00: real time    0.00
    --------------------------------------------
      LOOP:  cpu time    1.85: real time    1.85

 eigenvalue-minimisations  :   288
 total energy-change (2. order) : 0.6368415E+00  (-0.6072801E-01)
 number of electron   91.9999997 magnetization 
 augmentation part    -1.1083142 magnetization 

 Broyden mixing:
  rms(total) = 0.32720E+00    rms(broyden)= 0.32719E+00
  rms(prec ) = 0.48308E+00
  weight for this iteration     100.00

 eigenvalues of (default mixing * dielectric matrix)
  average eigenvalue GAMMA=   2.4412
  2.4412

 Free energy of the ion-electron system (eV)
  ---------------------------------------------------
  alpha Z        PSCENC =        -7.38313139
  Ewald energy   TEWEN  =     -2181.67816138
  -1/2 Hartree   DENC   =       -25.39641702
  -exchange  EXHF       =         0.00000000
  -V(xc)+E(xc)   XCENC  =      -795.23084574
  PAW double counting   =      1080.42176735     -110.84303255
  entropy T*S    EENTRO =        -0.03908562
  eigenvalues    EBANDS =       298.15277036
  atomic energy  EATOM  =      1629.13144109
  ---------------------------------------------------
  free energy    TOTEN  =      -112.86469490 eV

  energy without entropy =     -112.82560928  energy(sigma->0) =     -112.85166636


--------------------------------------------------------------------------------------------------------




----------------------------------------- Iteration    1(  14)  ---------------------------------------


    POTLOK:  cpu time    0.15: real time    0.15
    SETDIJ:  cpu time    0.01: real time    0.01
    EDDIAG:  cpu time    0.30: real time    0.30
  RMM-DIIS:  cpu time    1.18: real time    1.21
    ORTHCH:  cpu time    0.02: real time    0.02
       DOS:  cpu time    0.00: real time    0.00
    CHARGE:  cpu time    0.18: real time    0.18
    MIXING:  cpu time    0.00: real time    0.00
    --------------------------------------------
      LOOP:  cpu time    1.84: real time    1.87

 eigenvalue-minimisations  :   288
 total energy-change (2. order) : 0.2433280E+00  (-0.1443320E-01)
 number of electron   91.9999997 magnetization 
 augmentation part    -1.1236694 magnetization 

 Broyden mixing:
  rms(total) = 0.12860E+00    rms(broyden)= 0.12860E+00
  rms(prec ) = 0.18858E+00
  weight for this iteration     100.00

 eigenvalues of (default mixing * dielectric matrix)
  average eigenvalue GAMMA=   1.8460
  2.6048  1.0872

 Free energy of the ion-electron system (eV)
  ---------------------------------------------------
  alpha Z        PSCENC =        -7.38313139
  Ewald energy   TEWEN  =     -2181.67816138
  -1/2 Hartree   DENC   =       -26.39240274
  -exchange  EXHF       =         0.00000000
  -V(xc)+E(xc)   XCENC  =      -793.91559787
  PAW double counting   =      1082.14378668     -112.72206373
  entropy T*S    EENTRO =        -0.03848039
  eigenvalues    EBANDS =       298.23324284
  atomic energy  EATOM  =      1629.13144109
  ---------------------------------------------------
  free energy    TOTEN  =      -112.62136689 eV

  energy without entropy =     -112.58288650  energy(sigma->0) =     -112.60854009


--------------------------------------------------------------------------------------------------------




----------------------------------------- Iteration    1(  15)  ---------------------------------------


    POTLOK:  cpu time    0.15: real time    0.15
    SETDIJ:  cpu time    0.01: real time    0.01
    EDDIAG:  cpu time    0.30: real time    0.30
  RMM-DIIS:  cpu time    1.20: real time    1.20
    ORTHCH:  cpu time    0.02: real time    0.02
       DOS:  cpu time    0.00: real time    0.00
    CHARGE:  cpu time    0.18: real time    0.18
    MIXING:  cpu time    0.00: real time    0.00
    --------------------------------------------
      LOOP:  cpu time    1.86: real time    1.87

 eigenvalue-minimisations  :   288
 total energy-change (2. order) : 0.4608123E-01  (-0.3195794E-02)
 number of electron   91.9999996 magnetization 
 augmentation part    -1.1357685 magnetization 

 Broyden mixing:
  rms(total) = 0.14732E-01    rms(broyden)= 0.14732E-01
  rms(prec ) = 0.26384E-01
  weight for this iteration     100.00

 eigenvalues of (default mixing * dielectric matrix)
  average eigenvalue GAMMA=   1.8001
  2.6176  1.0273  1.7555

 Free energy of the ion-electron system (eV)
  ---------------------------------------------------
  alpha Z        PSCENC =        -7.38313139
  Ewald energy   TEWEN  =     -2181.67816138
  -1/2 Hartree   DENC   =       -27.11637567
  -exchange  EXHF       =         0.00000000
  -V(xc)+E(xc)   XCENC  =      -792.99414020
  PAW double counting   =      1083.21263782     -113.91132807
  entropy T*S    EENTRO =        -0.03836519
  eigenvalues    EBANDS =       298.20213732
  atomic energy  EATOM  =      1629.13144109
  ---------------------------------------------------
  free energy    TOTEN  =      -112.57528566 eV

  energy without entropy =     -112.53692048  energy(sigma->0) =     -112.56249727


--------------------------------------------------------------------------------------------------------




----------------------------------------- Iteration    1(  16)  ---------------------------------------


    POTLOK:  cpu time    0.15: real time    0.15
    SETDIJ:  cpu time    0.01: real time    0.01
    EDDIAG:  cpu time    0.30: real time    0.30
  RMM-DIIS:  cpu time    1.23: real time    1.23
    ORTHCH:  cpu time    0.02: real time    0.02
       DOS:  cpu time    0.00: real time    0.00
    CHARGE:  cpu time    0.18: real time    0.18
    MIXING:  cpu time    0.00: real time    0.00
    --------------------------------------------
      LOOP:  cpu time    1.90: real time    1.90

 eigenvalue-minimisations  :   290
 total energy-change (2. order) : 0.1047845E-02  (-0.2741476E-03)
 number of electron   91.9999996 magnetization 
 augmentation part    -1.1385629 magnetization 

 Broyden mixing:
  rms(total) = 0.46001E-02    rms(broyden)= 0.46001E-02
  rms(prec ) = 0.71818E-02
  weight for this iteration     100.00

 eigenvalues of (default mixing * dielectric matrix)
  average eigenvalue GAMMA=   1.8321
  2.6601  2.2854  1.0491  1.3339

 Free energy of the ion-electron system (eV)
  ---------------------------------------------------
  alpha Z        PSCENC =        -7.38313139
  Ewald energy   TEWEN  =     -2181.67816138
  -1/2 Hartree   DENC   =       -27.10742990
  -exchange  EXHF       =         0.00000000
  -V(xc)+E(xc)   XCENC  =      -792.90834926
  PAW double counting   =      1083.47513078     -114.20076577
  entropy T*S    EENTRO =        -0.03884126
  eigenvalues    EBANDS =       298.13586928
  atomic energy  EATOM  =      1629.13144109
  ---------------------------------------------------
  free energy    TOTEN  =      -112.57423782 eV

  energy without entropy =     -112.53539656  energy(sigma->0) =     -112.56129073


--------------------------------------------------------------------------------------------------------




----------------------------------------- Iteration    1(  17)  ---------------------------------------


    POTLOK:  cpu time    0.15: real time    0.15
    SETDIJ:  cpu time    0.01: real time    0.01
    EDDIAG:  cpu time    0.30: real time    0.30
  RMM-DIIS:  cpu time    1.33: real time    1.33
    ORTHCH:  cpu time    0.02: real time    0.02
       DOS:  cpu time    0.00: real time    0.00
    CHARGE:  cpu time    0.18: real time    0.18
    MIXING:  cpu time    0.00: real time    0.00
    --------------------------------------------
      LOOP:  cpu time    1.99: real time    1.99

 eigenvalue-minimisations  :   300
 total energy-change (2. order) :-0.1494196E-04  (-0.2764313E-04)
 number of electron   91.9999996 magnetization 
 augmentation part    -1.1395463 magnetization 

 Broyden mixing:
  rms(total) = 0.14126E-02    rms(broyden)= 0.14126E-02
  rms(prec ) = 0.23466E-02
  weight for this iteration     100.00

 eigenvalues of (default mixing * dielectric matrix)
  average eigenvalue GAMMA=   1.7483
  2.6503  2.3720  1.5855  1.0670  1.0670

 Free energy of the ion-electron system (eV)
  ---------------------------------------------------
  alpha Z        PSCENC =        -7.38313139
  Ewald energy   TEWEN  =     -2181.67816138
  -1/2 Hartree   DENC   =       -27.10298047
  -exchange  EXHF       =         0.00000000
  -V(xc)+E(xc)   XCENC  =      -792.88878603
  PAW double counting   =      1083.54301201     -114.27908005
  entropy T*S    EENTRO =        -0.03875504
  eigenvalues    EBANDS =       298.12218851
  atomic energy  EATOM  =      1629.13144109
  ---------------------------------------------------
  free energy    TOTEN  =      -112.57425276 eV

  energy without entropy =     -112.53549772  energy(sigma->0) =     -112.56133441


--------------------------------------------------------------------------------------------------------




----------------------------------------- Iteration    1(  18)  ---------------------------------------


    POTLOK:  cpu time    0.15: real time    0.15
    SETDIJ:  cpu time    0.01: real time    0.01
    EDDIAG:  cpu time    0.30: real time    0.30
  RMM-DIIS:  cpu time    1.33: real time    1.33
    ORTHCH:  cpu time    0.02: real time    0.02
       DOS:  cpu time    0.00: real time    0.00
    CHARGE:  cpu time    0.18: real time    0.18
    MIXING:  cpu time    0.00: real time    0.00
    --------------------------------------------
      LOOP:  cpu time    2.00: real time    2.00

 eigenvalue-minimisations  :   310
 total energy-change (2. order) :-0.1334672E-04  (-0.3397047E-05)
 number of electron   91.9999996 magnetization 
 augmentation part    -1.1399403 magnetization 

 Broyden mixing:
  rms(total) = 0.55502E-03    rms(broyden)= 0.55499E-03
  rms(prec ) = 0.85633E-03
  weight for this iteration     100.00

 eigenvalues of (default mixing * dielectric matrix)
  average eigenvalue GAMMA=   1.7570
  2.6561  2.6325  1.0080  1.0080  1.6187  1.6187

 Free energy of the ion-electron system (eV)
  ---------------------------------------------------
  alpha Z        PSCENC =        -7.38313139
  Ewald energy   TEWEN  =     -2181.67816138
  -1/2 Hartree   DENC   =       -27.11567363
  -exchange  EXHF       =         0.00000000
  -V(xc)+E(xc)   XCENC  =      -792.88357501
  PAW double counting   =      1083.54081543     -114.27975791
  entropy T*S    EENTRO =        -0.03876265
  eigenvalues    EBANDS =       298.13253934
  atomic energy  EATOM  =      1629.13144109
  ---------------------------------------------------
  free energy    TOTEN  =      -112.57426611 eV

  energy without entropy =     -112.53550346  energy(sigma->0) =     -112.56134522


--------------------------------------------------------------------------------------------------------




----------------------------------------- Iteration    1(  19)  ---------------------------------------


    POTLOK:  cpu time    0.15: real time    0.15
    SETDIJ:  cpu time    0.01: real time    0.01
    EDDIAG:  cpu time    0.30: real time    0.30
  RMM-DIIS:  cpu time    1.02: real time    1.02
    ORTHCH:  cpu time    0.02: real time    0.02
       DOS:  cpu time    0.00: real time    0.00
    CHARGE:  cpu time    0.18: real time    0.18
    MIXING:  cpu time    0.00: real time    0.00
    --------------------------------------------
      LOOP:  cpu time    1.68: real time    1.68

 eigenvalue-minimisations  :   229
 total energy-change (2. order) :-0.6162988E-05  (-0.4492704E-06)
 number of electron   91.9999996 magnetization 
 augmentation part    -1.1400293 magnetization 

 Broyden mixing:
  rms(total) = 0.13580E-03    rms(broyden)= 0.13579E-03
  rms(prec ) = 0.25618E-03
  weight for this iteration     100.00

 eigenvalues of (default mixing * dielectric matrix)
  average eigenvalue GAMMA=   1.7301
  2.7741  2.5791  1.8371  0.9959  0.9959  1.5714  1.3571

 Free energy of the ion-electron system (eV)
  ---------------------------------------------------
  alpha Z        PSCENC =        -7.38313139
  Ewald energy   TEWEN  =     -2181.67816138
  -1/2 Hartree   DENC   =       -27.12042552
  -exchange  EXHF       =         0.00000000
  -V(xc)+E(xc)   XCENC  =      -792.88188994
  PAW double counting   =      1083.51990127     -114.25985626
  entropy T*S    EENTRO =        -0.03875475
  eigenvalues    EBANDS =       298.13660462
  atomic energy  EATOM  =      1629.13144109
  ---------------------------------------------------
  free energy    TOTEN  =      -112.57427227 eV

  energy without entropy =     -112.53551752  energy(sigma->0) =     -112.56135402


--------------------------------------------------------------------------------------------------------




----------------------------------------- Iteration    1(  20)  ---------------------------------------


    POTLOK:  cpu time    0.15: real time    0.15
    SETDIJ:  cpu time    0.01: real time    0.01
    EDDIAG:  cpu time    0.30: real time    0.30
  RMM-DIIS:  cpu time    0.85: real time    0.85
    ORTHCH:  cpu time    0.02: real time    0.02
       DOS:  cpu time    0.00: real time    0.00
    --------------------------------------------
      LOOP:  cpu time    1.32: real time    1.33

 eigenvalue-minimisations  :   181
 total energy-change (2. order) :-0.4566550E-06  (-0.8122278E-07)
 number of electron   91.9999996 magnetization 
 augmentation part    -1.1400293 magnetization 

 Free energy of the ion-electron system (eV)
  ---------------------------------------------------
  alpha Z        PSCENC =        -7.38313139
  Ewald energy   TEWEN  =     -2181.67816138
  -1/2 Hartree   DENC   =       -27.12222675
  -exchange  EXHF       =         0.00000000
  -V(xc)+E(xc)   XCENC  =      -792.88158415
  PAW double counting   =      1083.50954654     -114.24950988
  entropy T*S    EENTRO =        -0.03875239
  eigenvalues    EBANDS =       298.13810558
  atomic energy  EATOM  =      1629.13144109
  ---------------------------------------------------
  free energy    TOTEN  =      -112.57427273 eV

  energy without entropy =     -112.53552033  energy(sigma->0) =     -112.56135526


--------------------------------------------------------------------------------------------------------




 average (electrostatic) potential at core
  the test charge radii are     1.0406  1.0714
  (the norm of the test charge is              1.0000)
       1 -72.9169       2 -73.1096       3 -73.0308       4 -73.0308       5 -73.1074
       6 -73.0797       7 -73.0602       8 -72.9717       9 -73.0463      10 -73.0308
      11 -73.0308      12 -73.0704      13 -73.0480      14 -73.0602      15 -72.9717
      16 -73.1074      17 -73.0797      18 -72.9717      19 -73.0602      20 -73.1362
      21 -73.0271      22 -73.0372      23 -73.0372      24 -73.0704      25 -73.0480
      26 -72.9717      27 -73.0602      28 -73.0409      29 -73.0372      30 -73.0372
      31 -50.4215
 
 
 
 E-fermi :   7.8533     XC(G=0): -10.0131     alpha+bet :-14.3074
   add alpha+bet to get absolut eigen values

 k-point   1 :       0.2500    0.2500    0.2500
  band No.  band energies     occupation 
      1      -2.9539      2.00000
      2      -1.9236      2.00000
      3      -1.8731      2.00000
      4      -1.6393      2.00000
      5      -0.8024      2.00000
      6      -0.7490      2.00000
      7      -0.3839      2.00000
      8       0.2937      2.00000
      9       0.3325      2.00000
     10       0.5044      2.00000
     11       0.6134      2.00000
     12       1.3476      2.00000
     13       1.4016      2.00000
     14       1.4197      2.00000
     15       1.5536      2.00000
     16       1.7300      2.00000
     17       1.9671      2.00000
     18       2.6627      2.00000
     19       2.6784      2.00000
     20       2.8499      2.00000
     21       3.5422      2.00000
     22       3.6132      2.00000
     23       3.6600      2.00000
     24       3.7137      2.00000
     25       3.7517      2.00000
     26       4.0384      2.00000
     27       4.5413      2.00000
     28       4.5955      2.00000
     29       4.6350      2.00000
     30       4.7565      2.00000
     31       4.8134      2.00000
     32       4.8843      2.00000
     33       4.9347      2.00000
     34       5.0580      2.00000
     35       5.2415      2.00000
     36       5.7191      2.00000
     37       5.8335      2.00000
     38       6.3347      2.00000
     39       6.7373      2.00000
     40       6.7629      2.00000
     41       6.7969      2.00000
     42       6.9710      2.00000
     43       7.0137      2.00000
     44       7.0729      2.00000
     45       7.1151      2.00000
     46       7.8147      1.31993
     47       7.8463      1.05942
     48       7.9407      0.33279
     49       8.0800     -0.06802
     50       8.1653     -0.04985
     51       8.2293     -0.02310
     52       8.2575     -0.01493
     53       8.3305     -0.00379
     54       8.4173     -0.00049
     55       9.0915      0.00000
     56       9.1546      0.00000
     57       9.1648      0.00000
     58       9.3950      0.00000
     59       9.4170      0.00000
     60       9.4793      0.00000
     61       9.9805      0.00000
     62       9.9860      0.00000
     63      10.0694      0.00000
     64      10.1181      0.00000
     65      10.1886      0.00000
     66      10.2128      0.00000
     67      10.5317      0.00000
     68      10.6825      0.00000
     69      10.7087      0.00000
     70      11.0101      0.00000
     71      11.1324      0.00000
     72      11.2989      0.00000

 k-point   2 :      -0.2500    0.2500    0.2500
  band No.  band energies     occupation 
      1      -2.9567      2.00000
      2      -1.9169      2.00000
      3      -1.8161      2.00000
      4      -1.7068      2.00000
      5      -0.8010      2.00000
      6      -0.6661      2.00000
      7      -0.5201      2.00000
      8       0.2990      2.00000
      9       0.3998      2.00000
     10       0.4341      2.00000
     11       0.6855      2.00000
     12       1.3763      2.00000
     13       1.4605      2.00000
     14       1.4728      2.00000
     15       1.5062      2.00000
     16       1.7269      2.00000
     17       1.8720      2.00000
     18       2.6310      2.00000
     19       2.7361      2.00000
     20       2.7736      2.00000
     21       3.5526      2.00000
     22       3.6256      2.00000
     23       3.6541      2.00000
     24       3.6886      2.00000
     25       3.7651      2.00000
     26       4.0067      2.00000
     27       4.5715      2.00000
     28       4.6540      2.00000
     29       4.6762      2.00000
     30       4.7241      2.00000
     31       4.7433      2.00000
     32       4.9159      2.00000
     33       4.9347      2.00000
     34       5.0558      2.00000
     35       5.1806      2.00000
     36       5.7321      2.00000
     37       5.9527      2.00000
     38       6.2623      2.00000
     39       6.7558      2.00000
     40       6.7762      2.00000
     41       6.8815      2.00000
     42       7.0053      2.00000
     43       7.0230      2.00000
     44       7.0591      2.00000
     45       7.1353      2.00000
     46       7.8463      1.05871
     47       7.9127      0.52109
     48       7.9791      0.13488
     49       8.0689     -0.06288
     50       8.1290     -0.06505
     51       8.1381     -0.06172
     52       8.1815     -0.04235
     53       8.2270     -0.02387
     54       8.2766     -0.01078
     55       9.1350      0.00000
     56       9.1585      0.00000
     57       9.3033      0.00000
     58       9.3974      0.00000
     59       9.4023      0.00000
     60       9.4818      0.00000
     61       9.9859      0.00000
     62       9.9945      0.00000
     63      10.0119      0.00000
     64      10.0749      0.00000
     65      10.1199      0.00000
     66      10.1798      0.00000
     67      10.5747      0.00000
     68      10.6273      0.00000
     69      10.6686      0.00000
     70      10.9670      0.00000
     71      11.2149      0.00000
     72      11.3961      0.00000


--------------------------------------------------------------------------------------------------------


 soft charge-density along one line, spin component           1
         0         1         2         3         4         5         6         7         8         9
 total charge-density along one line
 
 pseudopotential strength for first ion, spin component:           1
  8.457  -0.006   0.000   0.000   0.000   0.000   0.000   0.000
 -0.006   0.000   0.000   0.000   0.000   0.000   0.000   0.000
  0.000   0.000   1.989   0.000   0.000  -0.026   0.000   0.000
  0.000   0.000   0.000   1.989   0.000   0.000  -0.026   0.000
  0.000   0.000   0.000   0.000   1.989   0.000   0.000  -0.026
  0.000   0.000  -0.026   0.000   0.000  -0.012   0.000   0.000
  0.000   0.000   0.000  -0.026   0.000   0.000  -0.012   0.000
  0.000   0.000   0.000   0.000  -0.026   0.000   0.000  -0.012
 total augmentation occupancy for first ion, spin component:           1
  1.318  -0.524   0.000  -0.003  -0.003   0.000   0.002   0.002
 -0.524   0.508   0.000   0.000   0.000   0.000  -0.001  -0.001
  0.000   0.000   0.750   0.000   0.000  -0.188   0.000   0.000
 -0.003   0.000   0.000   0.759   0.002   0.000  -0.189   0.000
 -0.003   0.000   0.000   0.002   0.759   0.000   0.000  -0.189
  0.000   0.000  -0.188   0.000   0.000   0.053   0.000   0.000
  0.002  -0.001   0.000  -0.189   0.000   0.000   0.053   0.000
  0.002  -0.001   0.000   0.000  -0.189   0.000   0.000   0.053


------------------------ aborting loop because EDIFF is reached ----------------------------------------




--------------------------------------------------------------------------------------------------------



  FREE ENERGIE OF THE ION-ELECTRON SYSTEM (eV)
  ---------------------------------------------------
  free  energy   TOTEN  =      -112.574273 eV

  energy  without entropy=     -112.535520  energy(sigma->0) =     -112.561355
 
    CHARGE:  cpu time    0.17: real time    0.17
    FORLOC:  cpu time    0.04: real time    0.04
    FORNL :  cpu time    0.46: real time    0.46
    STRESS:  cpu time    1.00: real time    1.00
    FORCOR:  cpu time    0.17: real time    0.17
    FORHAR:  cpu time    0.07: real time    0.07
    MIXING:  cpu time    0.00: real time    0.01

  FORCE on cell =-STRESS in cart. coord.  units (eV):
  Direction    XX          YY          ZZ          XY          YZ          ZX
  --------------------------------------------------------------------------------------
  Alpha Z    -7.38313    -7.38313    -7.38313
  Ewald    -724.24835  -733.19034  -724.24835     0.00000     0.00000     5.52985
  Hartree    11.09171     4.93981    11.09171     0.00000     0.00000     3.04799
  E(xc)    -260.83688  -260.90022  -260.83688     0.00000     0.00000     0.06605
  Local     -18.77536    -3.67335   -18.77536     0.00000     0.00000    -8.39154
  n-local   576.97099   577.32275   576.97095     0.29748    -1.10317    -0.53360
  augment   -30.46549   -30.57002   -30.46549     0.00000     0.00000    -0.03179
  Kinetic   452.00374   456.12134   452.00374    -3.68306     0.91074     2.17880
  Fock        0.00000     0.00000     0.00000     0.00000     0.00000     0.00000
  -------------------------------------------------------------------------------------
  Total      -1.64279     2.66684    -1.64279     0.00000     0.00000     1.86575
  in kB      -4.97647     8.07862    -4.97647     0.00000     0.00000     5.65189
  external pressure =       -0.62 kB  Pullay stress =        0.00 kB


 VOLUME and BASIS-vectors are now :
 -----------------------------------------------------------------------------
  energy-cutoff  :      300.00
  volume of cell :      528.90
      direct lattice vectors                 reciprocal lattice vectors
     8.087052000  0.000000000  0.000000000     0.123654454  0.000000000  0.000000000
     0.000000000  8.087052000  0.000000000     0.000000000  0.123654454  0.000000000
     0.000000000  0.000000000  8.087052000     0.000000000  0.000000000  0.123654454

  length of vectors
     8.087052000  8.087052000  8.087052000     0.123654454  0.123654454  0.123654454


 FORCES acting on ions
    electron-ion (+dipol)            ewald-force                    non-local-force                 convergence-correction
 -----------------------------------------------------------------------------------------------
   -.132E+01 0.211E-13 -.132E+01   0.115E+01 -.381E-16 0.115E+01   0.161E+00 0.000E+00 0.161E+00   0.326E-04 0.538E-14 0.329E-04
   -.293E+01 -.620E-13 -.293E+01   0.270E+01 -.280E-15 0.270E+01   0.246E+00 0.000E+00 0.246E+00   0.128E-03 0.277E-14 0.129E-03
   -.258E+01 -.656E+01 -.402E+01   0.243E+01 0.657E+01 0.417E+01   0.141E+00 -.522E-01 -.201E+00   0.139E-03 0.165E-03 0.450E-04
   -.402E+01 -.656E+01 -.258E+01   0.417E+01 0.657E+01 0.243E+01   -.201E+00 -.522E-01 0.141E+00   0.446E-04 0.166E-03 0.140E-03
   0.442E+00 0.541E-13 -.123E+01   -.641E+00 0.645E-14 0.106E+01   0.223E+00 0.000E+00 0.183E+00   -.630E-04 0.311E-14 0.718E-04
   0.272E+01 -.453E-13 -.202E+01   -.247E+01 0.707E-13 0.208E+01   -.270E+00 0.000E+00 -.837E-01   -.143E-03 0.294E-14 0.130E-03
   0.280E+01 -.326E+01 -.733E+00   -.264E+01 0.329E+01 0.814E+00   -.172E+00 -.414E-01 -.923E-01   -.135E-03 0.166E-03 0.574E-04
   0.502E+01 -.116E+02 -.779E+01   -.497E+01 0.118E+02 0.788E+01   -.465E-01 -.215E+00 -.656E-01   -.351E-04 0.161E-03 0.111E-03
   -.410E+01 -.119E-12 -.410E+01   0.416E+01 -.940E-15 0.416E+01   -.812E-01 0.000E+00 -.812E-01   0.520E-04 -.526E-14 0.527E-04
   -.258E+01 0.656E+01 -.402E+01   0.243E+01 -.657E+01 0.417E+01   0.141E+00 0.522E-01 -.201E+00   0.139E-03 -.165E-03 0.450E-04
   -.402E+01 0.656E+01 -.258E+01   0.417E+01 -.657E+01 0.243E+01   -.201E+00 0.522E-01 0.141E+00   0.446E-04 -.166E-03 0.140E-03
   0.418E+01 -.151E-12 -.399E+01   -.425E+01 0.885E-12 0.416E+01   0.100E+00 -.173E-17 -.159E+00   -.408E-04 -.310E-14 0.437E-04
   0.781E+01 0.000E+00 -.777E+01   -.797E+01 0.119E-13 0.785E+01   0.109E+00 -.139E-16 -.938E-01   -.135E-03 -.257E-14 0.128E-03
   0.280E+01 0.326E+01 -.733E+00   -.264E+01 -.329E+01 0.814E+00   -.172E+00 0.414E-01 -.923E-01   -.135E-03 -.166E-03 0.574E-04
   0.502E+01 0.116E+02 -.779E+01   -.497E+01 -.118E+02 0.788E+01   -.465E-01 0.215E+00 -.656E-01   -.351E-04 -.161E-03 0.111E-03
   -.123E+01 0.900E-13 0.442E+00   0.106E+01 -.115E-14 -.641E+00   0.183E+00 -.434E-18 0.223E+00   0.715E-04 0.742E-14 -.632E-04
   -.202E+01 0.308E-14 0.272E+01   0.208E+01 -.258E-14 -.247E+01   -.837E-01 -.867E-18 -.270E+00   0.129E-03 0.647E-14 -.143E-03
   -.779E+01 -.116E+02 0.502E+01   0.788E+01 0.118E+02 -.497E+01   -.656E-01 -.215E+00 -.465E-01   0.110E-03 0.161E-03 -.356E-04
   -.733E+00 -.326E+01 0.280E+01   0.814E+00 0.329E+01 -.264E+01   -.923E-01 -.414E-01 -.172E+00   0.570E-04 0.166E-03 -.136E-03
   0.122E+01 -.525E-13 0.122E+01   -.115E+01 0.690E-13 -.115E+01   -.746E-01 0.000E+00 -.746E-01   -.615E-04 0.204E-14 -.618E-04
   0.301E+01 0.464E-13 0.301E+01   -.268E+01 -.174E-14 -.268E+01   -.328E+00 0.000E+00 -.328E+00   -.100E-03 0.600E-14 -.101E-03
   0.753E+01 -.861E+01 0.534E+00   -.775E+01 0.880E+01 -.613E+00   0.243E+00 -.207E+00 0.123E+00   -.131E-03 0.190E-03 -.570E-04
   0.534E+00 -.861E+01 0.753E+01   -.613E+00 0.880E+01 -.775E+01   0.123E+00 -.207E+00 0.243E+00   -.566E-04 0.189E-03 -.132E-03
   -.399E+01 -.636E-13 0.418E+01   0.416E+01 0.885E-12 -.425E+01   -.159E+00 0.000E+00 0.100E+00   0.431E-04 -.715E-14 -.415E-04
   -.777E+01 0.461E-13 0.781E+01   0.785E+01 -.618E-13 -.797E+01   -.938E-01 0.139E-16 0.109E+00   0.127E-03 -.642E-14 -.136E-03
   -.779E+01 0.116E+02 0.502E+01   0.788E+01 -.118E+02 -.497E+01   -.656E-01 0.215E+00 -.465E-01   0.110E-03 -.161E-03 -.356E-04
   -.733E+00 0.326E+01 0.280E+01   0.814E+00 -.329E+01 -.264E+01   -.923E-01 0.414E-01 -.172E+00   0.570E-04 -.166E-03 -.136E-03
   0.758E+01 0.448E-13 0.758E+01   -.777E+01 -.216E-14 -.777E+01   0.211E+00 0.000E+00 0.211E+00   -.149E-03 -.602E-14 -.150E-03
   0.753E+01 0.861E+01 0.534E+00   -.775E+01 -.880E+01 -.613E+00   0.243E+00 0.207E+00 0.123E+00   -.131E-03 -.190E-03 -.570E-04
   0.534E+00 0.861E+01 0.753E+01   -.613E+00 -.880E+01 -.775E+01   0.123E+00 0.207E+00 0.243E+00   -.566E-04 -.189E-03 -.132E-03
   -.518E+01 0.302E-13 -.518E+01   0.512E+01 0.416E-14 0.512E+01   0.542E-01 0.000E+00 0.542E-01   0.863E-04 -.145E-14 0.871E-04
 -----------------------------------------------------------------------------------------------
   -.563E-01 0.757E-13 -.563E-01   0.355E-13 -.438E-13 0.595E-13   0.563E-01 -.555E-16 0.563E-01   -.364E-04 0.227E-14 -.365E-04
 
 
 POSITION                                       TOTAL-FORCE (eV/Angst)
 -----------------------------------------------------------------------------------
      8.08351      0.00000      8.08351        -0.007553      0.000000     -0.007553
      2.00761      0.00000      2.00761         0.020075      0.000000      0.020075
      2.02195      2.01860      0.00267        -0.010281     -0.033791     -0.050041
      0.00267      2.01860      2.02195        -0.050041     -0.033791     -0.010281
      4.04062      0.00000      8.05602         0.023854      0.000000      0.020698
      6.09249      0.00000      2.02082        -0.016964      0.000000     -0.022726
      6.08199      2.01411      8.07918        -0.011126     -0.012852     -0.011604
      4.08041      2.00140      2.01998         0.001905     -0.035605      0.019939
      8.07950      4.04353      8.07950        -0.023216      0.000000     -0.023216
      2.02195      6.06845      0.00267        -0.010281      0.033791     -0.050041
      0.00267      6.06845      2.02195        -0.050041      0.033791     -0.010281
      4.06367      4.04353      8.06614         0.031016      0.000000      0.007498
      6.04001      4.04353      2.03178        -0.052097      0.000000     -0.004643
      6.08199      6.07294      8.07918        -0.011126      0.012852     -0.011604
      4.08041      6.08565      2.01998         0.001905      0.035605      0.019939
      8.05602      0.00000      4.04062         0.020698      0.000000      0.023854
      2.02082      0.00000      6.09249        -0.022726      0.000000     -0.016964
      2.01998      2.00140      4.08041         0.019939     -0.035605      0.001905
      8.07918      2.01411      6.08199        -0.011604     -0.012852     -0.011126
      4.04988      0.00000      4.04988        -0.012043      0.000000     -0.012043
      6.07376      0.00000      6.07376        -0.001193      0.000000     -0.001193
      6.02157      2.05735      4.03138         0.022866     -0.015660      0.043090
      4.03138      2.05735      6.02157         0.043090     -0.015660      0.022866
      8.06614      4.04353      4.06367         0.007498      0.000000      0.031016
      2.03178      4.04353      6.04001        -0.004643      0.000000     -0.052097
      2.01998      6.08565      4.08041         0.019939      0.035605      0.001905
      8.07918      6.07294      6.08199        -0.011604      0.012852     -0.011126
      6.03032      4.04353      6.03032         0.028380      0.000000      0.028380
      6.02157      6.02971      4.03138         0.022866      0.015660      0.043090
      4.03138      6.02971      6.02157         0.043090      0.015660      0.022866
      2.10901      4.04353      2.10901        -0.000581      0.000000     -0.000581
 -----------------------------------------------------------------------------------
    total drift:                               -0.000028      0.000000     -0.000028


--------------------------------------------------------------------------------------------------------


    POTLOK:  cpu time    0.16: real time    0.16


--------------------------------------------------------------------------------------------------------


  FORCES: max atom, RMS     0.000822    0.000148
  FORCE total and by dimension    0.000822    0.000581

 ----------------------------------------------------------------------------- 
|                                                                             |
|           W    W    AA    RRRRR   N    N  II  N    N   GGGG   !!!           |
|           W    W   A  A   R    R  NN   N  II  NN   N  G    G  !!!           |
|           W    W  A    A  R    R  N N  N  II  N N  N  G       !!!           |
|           W WW W  AAAAAA  RRRRR   N  N N  II  N  N N  G  GGG   !            |
|           WW  WW  A    A  R   R   N   NN  II  N   NN  G    G                |
|           W    W  A    A  R    R  N    N  II  N    N   GGGG   !!!           |
|                                                                             |
|      Your timestep is larger than 0.1 Angst.                                |
|      For finite differences this really does not make sense. I will         |
|      reset POTIM to 0.015. I recommend to use 0.01 to 0.02 for finite       |
|      differences.                                                           |
|                                                                             |
 ----------------------------------------------------------------------------- 

 Finite differences:
   Step               POTIM =   1.500000000000000E-002
   Degrees of freedom DOF   =            3
  LATTYP: Found a simple cubic cell.
 ALAT       =     8.0870520000
  
  Lattice vectors:
  
 A1 = (   8.0870520000,   0.0000000000,   0.0000000000)
 A2 = (   0.0000000000,   8.0870520000,   0.0000000000)
 A3 = (   0.0000000000,   0.0000000000,   8.0870520000)
 Subroutine PRICEL returns:
 Original cell was already a primitive cell.
 

Analysis of symmetry for initial positions (statically):

 Routine SETGRP: Setting up the symmetry group for a 
 simple cubic supercell.


 Subroutine GETGRP returns: Found  2 space group operations
 (whereof  2 operations were pure point group operations)
 out of a pool of 48 trial point group operations.


The static configuration has the point symmetry C_1h.

Analysis of symmetry for dynamics (positions and initial velocities):

 Subroutine DYNSYM returns: Found  2 space group operations
 (whereof  2 operations were pure point group operations)
 out of a pool of  2 trial space group operations
 (whereof  2 operations were pure point group operations)
 and found also     1 'primitive' translations


The dynamic configuration has the point symmetry C_1h.

[...]
  -------------------------------------------------------------------------------------
  Total      -1.63261     2.64036    -1.61473     0.00000     0.00000     1.89235
  in kB      -4.94565     7.99841    -4.89147     0.00000     0.00000     5.73247
  external pressure =       -0.61 kB  Pullay stress =        0.00 kB


 VOLUME and BASIS-vectors are now :
 -----------------------------------------------------------------------------
  energy-cutoff  :      300.00
  volume of cell :      528.90
      direct lattice vectors                 reciprocal lattice vectors
     8.087052000  0.000000000  0.000000000     0.123654454  0.000000000  0.000000000
     0.000000000  8.087052000  0.000000000     0.000000000  0.123654454  0.000000000
     0.000000000  0.000000000  8.087052000     0.000000000  0.000000000  0.123654454

  length of vectors
     8.087052000  8.087052000  8.087052000     0.123654454  0.123654454  0.123654454


 FORCES acting on ions
    electron-ion (+dipol)            ewald-force                    non-local-force                 convergence-correction
 -----------------------------------------------------------------------------------------------
   -.131E+01 0.188E-13 -.132E+01   0.114E+01 -.270E-15 0.114E+01   0.162E+00 0.000E+00 0.164E+00   0.253E-04 0.101E-05 0.181E-04
   -.293E+01 -.620E-13 -.295E+01   0.270E+01 -.446E-16 0.273E+01   0.246E+00 0.000E+00 0.249E+00   0.185E-05 -.145E-06 -.130E-03
   -.258E+01 -.647E+01 -.397E+01   0.243E+01 0.650E+01 0.413E+01   0.140E+00 -.737E-01 -.221E+00   0.166E-04 0.165E-04 0.188E-03
   -.402E+01 -.655E+01 -.263E+01   0.417E+01 0.657E+01 0.248E+01   -.202E+00 -.523E-01 0.141E+00   0.573E-04 0.265E-04 -.138E-03
   0.435E+00 0.539E-13 -.122E+01   -.635E+00 0.677E-14 0.106E+01   0.224E+00 0.000E+00 0.183E+00   -.262E-04 0.898E-06 0.340E-05
   0.272E+01 -.377E-13 -.203E+01   -.247E+01 0.708E-13 0.209E+01   -.269E+00 0.000E+00 -.835E-01   -.121E-04 0.789E-06 -.229E-03
   0.280E+01 -.325E+01 -.731E+00   -.264E+01 0.328E+01 0.811E+00   -.171E+00 -.409E-01 -.924E-01   -.125E-04 0.841E-05 -.127E-05
   0.501E+01 -.116E+02 -.784E+01   -.496E+01 0.118E+02 0.793E+01   -.465E-01 -.216E+00 -.658E-01   -.589E-04 -.455E-04 -.208E-03
   -.403E+01 -.114E-12 -.406E+01   0.409E+01 -.843E-15 0.412E+01   -.974E-01 0.000E+00 -.966E-01   0.186E-04 -.113E-05 0.189E-03
   -.258E+01 0.647E+01 -.397E+01   0.243E+01 -.650E+01 0.413E+01   0.140E+00 0.737E-01 -.221E+00   0.167E-04 -.162E-04 0.188E-03
   -.402E+01 0.655E+01 -.263E+01   0.417E+01 -.657E+01 0.248E+01   -.202E+00 0.523E-01 0.141E+00   0.580E-04 -.263E-04 -.138E-03
   0.410E+01 -.143E-12 -.393E+01   -.418E+01 0.885E-12 0.411E+01   0.123E+00 0.000E+00 -.182E+00   -.419E-04 -.105E-05 0.158E-03
   0.781E+01 0.247E-14 -.779E+01   -.797E+01 0.120E-13 0.788E+01   0.109E+00 0.000E+00 -.917E-01   0.773E-04 -.892E-06 -.212E-03
   0.280E+01 0.325E+01 -.731E+00   -.264E+01 -.328E+01 0.811E+00   -.171E+00 0.409E-01 -.924E-01   -.126E-04 -.837E-05 0.171E-06
   0.501E+01 0.116E+02 -.784E+01   -.496E+01 -.118E+02 0.793E+01   -.465E-01 0.216E+00 -.658E-01   -.597E-04 0.458E-04 -.208E-03
   -.123E+01 0.929E-13 0.441E+00   0.107E+01 -.135E-14 -.641E+00   0.182E+00 0.000E+00 0.224E+00   0.149E-03 0.898E-06 -.496E-04
   -.202E+01 0.142E-13 0.274E+01   0.208E+01 -.289E-14 -.249E+01   -.845E-01 0.000E+00 -.267E+00   0.361E-04 0.789E-06 0.105E-03
   -.780E+01 -.117E+02 0.507E+01   0.788E+01 0.118E+02 -.501E+01   -.608E-01 -.184E+00 -.723E-01   -.625E-04 -.106E-03 0.202E-03
   -.733E+00 -.326E+01 0.283E+01   0.814E+00 0.329E+01 -.266E+01   -.929E-01 -.397E-01 -.175E+00   0.697E-04 0.452E-04 0.105E-04
   0.122E+01 -.472E-13 0.121E+01   -.116E+01 0.686E-13 -.115E+01   -.759E-01 0.000E+00 -.721E-01   -.136E-03 0.780E-06 -.166E-04
   0.301E+01 0.536E-13 0.302E+01   -.268E+01 -.192E-14 -.269E+01   -.327E+00 0.000E+00 -.329E+00   -.289E-04 0.228E-05 0.238E-03
   0.753E+01 -.862E+01 0.533E+00   -.775E+01 0.881E+01 -.613E+00   0.243E+00 -.205E+00 0.124E+00   0.330E-04 0.413E-04 -.747E-05
   0.535E+00 -.861E+01 0.756E+01   -.615E+00 0.880E+01 -.778E+01   0.123E+00 -.208E+00 0.242E+00   -.586E-04 0.167E-05 0.584E-04
   -.408E+01 -.643E-13 0.423E+01   0.423E+01 0.885E-12 -.429E+01   -.135E+00 0.000E+00 0.798E-01   0.154E-04 -.105E-05 0.165E-03
   -.777E+01 0.438E-13 0.789E+01   0.786E+01 -.617E-13 -.806E+01   -.937E-01 0.000E+00 0.112E+00   -.361E-04 -.892E-06 -.159E-03
   -.780E+01 0.117E+02 0.507E+01   0.788E+01 -.118E+02 -.501E+01   -.608E-01 0.184E+00 -.723E-01   -.624E-04 0.106E-03 0.201E-03
   -.733E+00 0.326E+01 0.283E+01   0.814E+00 -.329E+01 -.266E+01   -.929E-01 0.397E-01 -.175E+00   0.711E-04 -.451E-04 0.104E-04
   0.758E+01 0.498E-13 0.760E+01   -.777E+01 -.207E-14 -.779E+01   0.209E+00 0.000E+00 0.214E+00   -.219E-05 -.225E-05 0.184E-03
   0.753E+01 0.862E+01 0.533E+00   -.775E+01 -.881E+01 -.613E+00   0.243E+00 0.205E+00 0.124E+00   0.328E-04 -.414E-04 -.888E-05
   0.535E+00 0.861E+01 0.756E+01   -.615E+00 -.880E+01 -.778E+01   0.123E+00 0.208E+00 0.242E+00   -.600E-04 -.171E-05 0.582E-04
   -.508E+01 0.292E-13 -.550E+01   0.504E+01 -.141E-15 0.540E+01   0.251E-01 0.000E+00 0.175E+00   -.288E-04 -.163E-06 -.231E-03
 -----------------------------------------------------------------------------------------------
   -.628E-01 0.738E-13 -.378E-01   0.373E-13 -.410E-13 0.604E-13   0.628E-01 -.555E-16 0.377E-01   -.204E-04 0.971E-06 0.240E-03
 
 
 POSITION                                       TOTAL-FORCE (eV/Angst)
 -----------------------------------------------------------------------------------
      8.08351      0.00000      8.08351        -0.008741      0.000000     -0.008066
      2.00761      0.00000      2.00761         0.019383      0.000000      0.021032
      2.02195      2.01860      0.00267        -0.011110     -0.044364     -0.059998
      0.00267      2.01860      2.02195        -0.049939     -0.034447     -0.008551
      4.04062      0.00000      8.05602         0.024477      0.000000      0.019767
      6.09249      0.00000      2.02082        -0.016929      0.000000     -0.022488
      6.08199      2.01411      8.07918        -0.010822     -0.013821     -0.011813
      4.08041      2.00140      2.01998         0.003233     -0.035904      0.022363
      8.07950      4.04353      8.07950        -0.030817      0.000000     -0.030518
      2.02195      6.06845      0.00267        -0.011110      0.044364     -0.059998
      0.00267      6.06845      2.02195        -0.049939      0.034447     -0.008551
      4.06367      4.04353      8.06614         0.043113      0.000000     -0.004407
      6.04001      4.04353      2.03178        -0.052141      0.000000     -0.004624
      6.08199      6.07294      8.07918        -0.010822      0.013821     -0.011813
      4.08041      6.08565      2.01998         0.003233      0.035904      0.022363
      8.05602      0.00000      4.04062         0.021416      0.000000      0.023474
      2.02082      0.00000      6.09249        -0.023692      0.000000     -0.017690
      2.01998      2.00140      4.08041         0.020447     -0.020565     -0.010338
      8.07918      2.01411      6.08199        -0.011077     -0.013183     -0.011229
      4.04988      0.00000      4.04988        -0.011955      0.000000     -0.013383
      6.07376      0.00000      6.07376        -0.000496      0.000000      0.001055
      6.02157      2.05735      4.03138         0.022308     -0.015661      0.042634
      4.03138      2.05735      6.02157         0.043007     -0.014855      0.022885
      8.06614      4.04353      4.06367         0.019383      0.000000      0.020878
      2.03178      4.04353      6.04001        -0.004745      0.000000     -0.053806
      2.01998      6.08565      4.08041         0.020447      0.020565     -0.010338
      8.07918      6.07294      6.08199        -0.011077      0.013183     -0.011229
      6.03032      4.04353      6.03032         0.027478      0.000000      0.027745
      6.02157      6.02971      4.03138         0.022308      0.015661      0.042634
      4.03138      6.02971      6.02157         0.043007      0.014855      0.022885
      2.10901      4.04353      2.09401        -0.017826      0.000000      0.069125
 -----------------------------------------------------------------------------------
    total drift:                               -0.000021      0.000001      0.000107
 d Force = 0.8523696E-05[-0.207E-02, 0.209E-02]  d Energy = 0.1764131E-04-0.912E-05
 d Force =-0.1536263E+00[-0.162E+00,-0.145E+00]  d Ewald  =-0.1536283E+00 0.203E-05


--------------------------------------------------------------------------------------------------------


    POTLOK:  cpu time    0.16: real time    0.16


--------------------------------------------------------------------------------------------------------


  FORCES: max atom, RMS     0.071387    0.012821
  FORCE total and by dimension    0.071387    0.069125
 Finite differences progress:
  Degree of freedom:   3/  3
  Displacement:        2/  2
  Total:               6/  6
 
 SECOND DERIVATIVES (NOT SYMMETRIZED)
 ------------------------------------
              31X         31Y         31Z 
 31X    -4.638051    0.000000    1.165509
 31Y    -0.000388   -6.011354   -0.000388
 31Z     1.165273    0.000000   -4.627294
 
 
 Eigenvectors and eigenvalues of the dynamical matrix
 ----------------------------------------------------
 
 
   1 f  =    7.774797 THz    48.850490 2PiTHz  259.339304 cm-1    32.153987 meV
             X         Y         Z           dx          dy          dz
      8.083510  0.000000  8.083510            0           0           0  
      2.007611  0.000000  2.007611            0           0           0  
      2.021949  2.018601  0.002669            0           0           0  
      0.002669  2.018601  2.021949            0           0           0  
      4.040623  0.000000  8.056022            0           0           0  
      6.092486  0.000000  2.020817            0           0           0  
      6.081989  2.014113  8.079183            0           0           0  
      4.080411  2.001400  2.019976            0           0           0  
      8.079499  4.043526  8.079499            0           0           0  
      2.021949  6.068451  0.002669            0           0           0  
      0.002669  6.068451  2.021949            0           0           0  
      4.063671  4.043526  8.066139            0           0           0  
      6.040009  4.043526  2.031783            0           0           0  
      6.081989  6.072939  8.079183            0           0           0  
      4.080411  6.085652  2.019976            0           0           0  
      8.056022  0.000000  4.040623            0           0           0  
      2.020817  0.000000  6.092486            0           0           0  
      2.019976  2.001400  4.080411            0           0           0  
      8.079183  2.014113  6.081989            0           0           0  
      4.049882  0.000000  4.049882            0           0           0  
      6.073756  0.000000  6.073756            0           0           0  
      6.021570  2.057346  4.031379            0           0           0  
      4.031379  2.057346  6.021570            0           0           0  
      8.066139  4.043526  4.063671            0           0           0  
      2.031783  4.043526  6.040009            0           0           0  
      2.019976  6.085652  4.080411            0           0           0  
      8.079183  6.072939  6.081989            0           0           0  
      6.030321  4.043526  6.030321            0           0           0  
      6.021570  6.029706  4.031379            0           0           0  
      4.031379  6.029706  6.021570            0           0           0  
      2.109006  4.043526  2.109006    -0.000078   -1.000000   -0.000074  
 
   2 f  =    7.635630 THz    47.976075 2PiTHz  254.697179 cm-1    31.578437 meV
             X         Y         Z           dx          dy          dz
      8.083510  0.000000  8.083510            0           0           0  
      2.007611  0.000000  2.007611            0           0           0  
      2.021949  2.018601  0.002669            0           0           0  
      0.002669  2.018601  2.021949            0           0           0  
      4.040623  0.000000  8.056022            0           0           0  
      6.092486  0.000000  2.020817            0           0           0  
      6.081989  2.014113  8.079183            0           0           0  
      4.080411  2.001400  2.019976            0           0           0  
      8.079499  4.043526  8.079499            0           0           0  
      2.021949  6.068451  0.002669            0           0           0  
      0.002669  6.068451  2.021949            0           0           0  
      4.063671  4.043526  8.066139            0           0           0  
      6.040009  4.043526  2.031783            0           0           0  
      6.081989  6.072939  8.079183            0           0           0  
      4.080411  6.085652  2.019976            0           0           0  
      8.056022  0.000000  4.040623            0           0           0  
      2.020817  0.000000  6.092486            0           0           0  
      2.019976  2.001400  4.080411            0           0           0  
      8.079183  2.014113  6.081989            0           0           0  
      4.049882  0.000000  4.049882            0           0           0  
      6.073756  0.000000  6.073756            0           0           0  
      6.021570  2.057346  4.031379            0           0           0  
      4.031379  2.057346  6.021570            0           0           0  
      8.066139  4.043526  4.063671            0           0           0  
      2.031783  4.043526  6.040009            0           0           0  
      2.019976  6.085652  4.080411            0           0           0  
      8.079183  6.072939  6.081989            0           0           0  
      6.030321  4.043526  6.030321            0           0           0  
      6.021570  6.029706  4.031379            0           0           0  
      4.031379  6.029706  6.021570            0           0           0  
      2.109006  4.043526  2.109006    -0.708737    0.000003    0.705473  
 
   3 f  =    5.904684 THz    37.100224 2PiTHz  196.959054 cm-1    24.419819 meV
             X         Y         Z           dx          dy          dz
      8.083510  0.000000  8.083510            0           0           0  
      2.007611  0.000000  2.007611            0           0           0  
      2.021949  2.018601  0.002669            0           0           0  
      0.002669  2.018601  2.021949            0           0           0  
      4.040623  0.000000  8.056022            0           0           0  
      6.092486  0.000000  2.020817            0           0           0  
      6.081989  2.014113  8.079183            0           0           0  
      4.080411  2.001400  2.019976            0           0           0  
      8.079499  4.043526  8.079499            0           0           0  
      2.021949  6.068451  0.002669            0           0           0  
      0.002669  6.068451  2.021949            0           0           0  
      4.063671  4.043526  8.066139            0           0           0  
      6.040009  4.043526  2.031783            0           0           0  
      6.081989  6.072939  8.079183            0           0           0  
      4.080411  6.085652  2.019976            0           0           0  
      8.056022  0.000000  4.040623            0           0           0  
      2.020817  0.000000  6.092486            0           0           0  
      2.019976  2.001400  4.080411            0           0           0  
      8.079183  2.014113  6.081989            0           0           0  
      4.049882  0.000000  4.049882            0           0           0  
      6.073756  0.000000  6.073756            0           0           0  
      6.021570  2.057346  4.031379            0           0           0  
      4.031379  2.057346  6.021570            0           0           0  
      8.066139  4.043526  4.063671            0           0           0  
      2.031783  4.043526  6.040009            0           0           0  
      2.019976  6.085652  4.080411            0           0           0  
      8.079183  6.072939  6.081989            0           0           0  
      6.030321  4.043526  6.030321            0           0           0  
      6.021570  6.029706  4.031379            0           0           0  
      4.031379  6.029706  6.021570            0           0           0  
      2.109006  4.043526  2.109006     0.705473   -0.000108    0.708737  
 
 Finite differences POTIM=  1.500000000000000E-002
  LATTYP: Found a simple cubic cell.
 ALAT       =     8.0870520000
  
  Lattice vectors:
  
 A1 = (   8.0870520000,   0.0000000000,   0.0000000000)
 A2 = (   0.0000000000,   8.0870520000,   0.0000000000)
 A3 = (   0.0000000000,   0.0000000000,   8.0870520000)
 Subroutine PRICEL returns:
 Original cell was already a primitive cell.
 

Analysis of symmetry for initial positions (statically):

 Routine SETGRP: Setting up the symmetry group for a 
 simple cubic supercell.


 Subroutine GETGRP returns: Found  4 space group operations
 (whereof  4 operations were pure point group operations)
 out of a pool of 48 trial point group operations.


The static configuration has the point symmetry C_2v.

Analysis of symmetry for dynamics (positions and initial velocities):

 Subroutine DYNSYM returns: Found  4 space group operations
 (whereof  4 operations were pure point group operations)
 out of a pool of  4 trial space group operations
 (whereof  4 operations were pure point group operations)
 and found also     1 'primitive' translations


The dynamic configuration has the point symmetry C_2v.

Analysis of constrained symmetry for selective dynamics:

 Subroutine DYNSYM returns: Found  4 space group operations
 (whereof  4 operations were pure point group operations)
 out of a pool of  4 trial space group operations
 (whereof  4 operations were pure point group operations)
 and found also     1 'primitive' translations


The constrained configuration has the point symmetry C_2v.
 
 KPOINTS: Automatic kpoint scheme                 

Automatic generation of k-mesh.
 
 Subroutine IBZKPT returns following result:
 ===========================================
 
 Found      2 irreducible k-points:
 
 Following reciprocal coordinates:
            Coordinates               Weight
  0.250000  0.250000  0.250000      4.000000
 -0.250000  0.250000  0.250000      4.000000
 
 Following cartesian coordinates:
            Coordinates               Weight
  0.030914  0.030914  0.030914      4.000000
 -0.030914  0.030914  0.030914      4.000000
 
     LOOP+:  cpu time   11.18: real time   11.22
    4ORBIT:  cpu time    0.00: real time    0.00

 total amount of memory used by VASP on root node  60642. kBytes
========================================================================

   base      :    30000. kBytes
   nonl-proj :     4692. kBytes
   fftplans  :     2983. kBytes
   grid      :    21626. kBytes
   one-center:       95. kBytes
   wavefun   :     1246. kBytes
 
  
  
 General timing and accounting informations for this job:
 ========================================================
  
                  Total CPU time used (sec):      120.779
                            User time (sec):      120.601
                          System time (sec):        0.178
                         Elapsed time (sec):      121.157
  
                   Maximum memory used (kb):           0.
                   Average memory used (kb):           0.
  
                          Minor page faults:        24630
                          Major page faults:            0
                 Voluntary context switches:         3787
