 vasp.5.2.2 15Apr09 complex 
 executed on             LinuxIFC date 2017.03.17  11:30:10
 running on   12 nodes
 distr:  one band on    1 nodes,   12 groups


--------------------------------------------------------------------------------------------------------


 INCAR:
 POTCAR:   PAW_PBE Al 04Jan2001                   
 POTCAR:   PAW_PBE Al 04Jan2001                   
   VRHFIN =Al: s2p1                                                             
   LEXCH  = PE                                                                  
   EATOM  =    53.5387 eV,    3.9350 Ry                                         
                                                                                
   TITEL  = PAW_PBE Al 04Jan2001                                                
   LULTRA =        F    use ultrasoft PP ?                                      
   IUNSCR =        1    unscreen: 0-lin 1-nonlin 2-no                           
   RPACOR =    1.500    partial core radius                                     
   POMASS =   26.982; ZVAL   =    3.000    mass and valenz                      
   RCORE  =    1.900    outmost cutoff radius                                   
   RWIGS  =    2.650; RWIGS  =    1.402    wigner-seitz radius (au A)           
   ENMAX  =  240.300; ENMIN  =  180.225 eV                                      
   ICORE  =        2    local potential                                         
   LCOR   =        T    correct aug charges                                     
   LPAW   =        T    paw PP                                                  
   EAUG   =  291.052                                                            
   DEXC   =    -.041                                                            
   RMAX   =    2.974    core radius for proj-oper                               
   RAUG   =    1.300    factor for augmentation sphere                          
   RDEP   =    1.966    radius for radial grids                                 
   QCUT   =   -4.203; QGAM   =    8.405    optimization parameters              
                                                                                
   Description                                                                  
     l     E      TYP  RCUT    TYP  RCUT                                        
     0   .000     23  1.900                                                     
     0   .000     23  1.900                                                     
     1   .000     23  1.900                                                     
     1  1.000     23  1.900                                                     
     2   .000      7  1.900                                                     
  local pseudopotential read in
  partial core-charges read in
  atomic valenz-charges read in
  non local Contribution for L=           0  read in
    real space projection operators read in
  non local Contribution for L=           0  read in
    real space projection operators read in
  non local Contribution for L=           1  read in
    real space projection operators read in
  non local Contribution for L=           1  read in
    real space projection operators read in
    PAW grid and wavefunctions read in
 
   number of l-projection  operators is LMAX  =           4
   number of lm-projection operators is LMMAX =           8
 

 ----------------------------------------------------------------------------- 
|                                                                             |
|  ADVICE TO THIS USER RUNNING 'VASP/VAMP'   (HEAR YOUR MASTER'S VOICE ...):  |
|                                                                             |
|      You have a (more or less) 'large supercell' and for larger cells       |
|      it might be more efficient to use real space projection operators      |
|      So try LREAL= Auto  in the INCAR   file.                               |
|      Mind: If you want to do a very accurate calculations keep the          |
|      reciprocal projection scheme          (i.e. LREAL=.FALSE.)             |
|                                                                             |
 ----------------------------------------------------------------------------- 

 PAW_PBE Al 04Jan2001                   :
 energy of atom  1       EATOM=  -53.5387
 kinetic energy error for atom=    0.0011 (will be added to EATOM!!)
 
 
 POSCAR: Al31                                    
  positions in direct lattice
  velocities in cartesian coordinates
 exchange correlation table for  LEXCH =        8
   RHO(1)=    0.500       N(1)  =     2000
   RHO(2)=  100.500       N(2)  =     4000

 VTST: version 2.03d, (02/18/09)

 CHAIN: initializing optimizer
 
 OPT: Using VASP Dynamics algorithm
 CHAIN: Read ICHAIN            0
 


--------------------------------------------------------------------------------------------------------


 ion  position               nearest neighbor table
   1  0.000  0.000  0.000-   2 2.85   3 2.85   4 2.85   6 2.85   7 2.85  11 2.85  12 2.85  15 2.85
                            18 2.85  20 2.85  22 2.85  28 2.85
   2  0.249  0.000  0.249-   1 2.85   3 2.85   4 2.85  11 2.85  12 2.85   5 2.86  17 2.86  21 2.87
                             8 2.88  19 2.88  16 2.88  27 2.88
   3  0.249  0.249  0.000-   1 2.85   2 2.85   4 2.85  18 2.85  20 2.85   5 2.86   9 2.86  13 2.87
                            10 2.88   8 2.88  24 2.88  26 2.88
   4  0.000  0.249  0.249-   1 2.85   2 2.85   3 2.85   6 2.85   7 2.85   9 2.86  17 2.86  25 2.87
                            10 2.88  19 2.88  23 2.88  14 2.88
   5  0.500  0.000  0.000-   2 2.86   3 2.86   6 2.86   7 2.86  11 2.86  15 2.86  18 2.86  22 2.86
                             8 2.90  16 2.90  24 2.90  31 2.90
   6  0.751  0.000  0.249-   1 2.85   4 2.85   7 2.85  12 2.85  15 2.85   5 2.86  17 2.86  21 2.87
                             8 2.88  16 2.88  23 2.88  30 2.88
   7  0.751  0.249  0.000-   1 2.85   4 2.85   6 2.85  20 2.85  22 2.85   5 2.86   9 2.86  13 2.87
                             8 2.88  14 2.88  24 2.88  29 2.88
   8  0.500  0.253  0.253-  10 2.82  14 2.82  19 2.82  23 2.82  21 2.86  13 2.86   6 2.88   7 2.88
                             2 2.88   3 2.88   5 2.90
   9  0.000  0.500  0.000-   3 2.86   4 2.86   7 2.86  11 2.86  12 2.86  15 2.86  20 2.86  28 2.86
                            14 2.90  26 2.90  10 2.90  29 2.90
  10  0.253  0.500  0.253-   8 2.82  16 2.82  19 2.82  27 2.82  25 2.86  13 2.86   3 2.88  11 2.88
                            12 2.88   4 2.88   9 2.90
  11  0.249  0.751  0.000-   1 2.85   2 2.85  12 2.85  18 2.85  28 2.85   9 2.86   5 2.86  13 2.87
                            10 2.88  26 2.88  16 2.88  31 2.88
  12  0.000  0.751  0.249-   1 2.85   2 2.85   6 2.85  11 2.85  15 2.85   9 2.86  17 2.86  25 2.87
                            14 2.88  10 2.88  27 2.88  30 2.88
  13  0.500  0.500  0.000-   8 2.86  10 2.86  14 2.86  16 2.86  24 2.86  26 2.86  29 2.86  31 2.86
                            11 2.87   3 2.87  15 2.87   7 2.87
  14  0.747  0.500  0.253-   8 2.82  16 2.82  23 2.82  30 2.82  25 2.86  13 2.86   4 2.88  12 2.88
                             7 2.88  15 2.88   9 2.90
  15  0.751  0.751  0.000-   1 2.85   6 2.85  12 2.85  22 2.85  28 2.85   9 2.86   5 2.86  13 2.87
                            14 2.88  16 2.88  29 2.88  31 2.88
  16  0.500  0.747  0.253-  10 2.82  14 2.82  27 2.82  30 2.82  13 2.86  21 2.86  15 2.88  11 2.88
                             6 2.88   2 2.88   5 2.90
  17  0.000  0.000  0.500-   2 2.86   4 2.86   6 2.86  12 2.86  18 2.86  20 2.86  22 2.86  28 2.86
                            23 2.90  27 2.90  19 2.90  30 2.90
  18  0.249  0.000  0.751-   1 2.85   3 2.85  11 2.85  20 2.85  28 2.85   5 2.86  17 2.86  21 2.87
                            24 2.88  27 2.88  19 2.88  31 2.88
  19  0.253  0.253  0.500-   8 2.82  10 2.82  24 2.82  26 2.82  25 2.86  21 2.86   2 2.88   4 2.88
                            18 2.88  20 2.88  17 2.90
  20  0.000  0.249  0.751-   1 2.85   3 2.85   7 2.85  18 2.85  22 2.85   9 2.86  17 2.86  25 2.87
                            23 2.88  19 2.88  26 2.88  29 2.88
  21  0.500  0.000  0.500-   8 2.86  16 2.86  19 2.86  23 2.86  24 2.86  27 2.86  30 2.86  31 2.86
                            18 2.87   2 2.87  22 2.87   6 2.87
  22  0.751  0.000  0.751-   1 2.85   7 2.85  15 2.85  20 2.85  28 2.85   5 2.86  17 2.86  21 2.87
                            24 2.88  23 2.88  30 2.88  31 2.88
  23  0.747  0.253  0.500-   8 2.82  14 2.82  24 2.82  29 2.82  25 2.86  21 2.86  22 2.88   6 2.88
                            20 2.88   4 2.88  17 2.90
  24  0.500  0.253  0.747-  19 2.82  23 2.82  26 2.82  29 2.82  21 2.86  13 2.86  22 2.88  18 2.88
                             7 2.88   3 2.88   5 2.90
  25  0.000  0.500  0.500-  10 2.86  14 2.86  19 2.86  23 2.86  26 2.86  27 2.86  29 2.86  30 2.86
                            20 2.87  28 2.87   4 2.87  12 2.87
  26  0.253  0.500  0.747-  19 2.82  24 2.82  27 2.82  31 2.82  13 2.86  25 2.86  11 2.88  20 2.88
                            28 2.88   3 2.88   9 2.90
  27  0.253  0.747  0.500-  10 2.82  16 2.82  26 2.82  31 2.82  21 2.86  25 2.86   2 2.88  18 2.88
                            28 2.88  12 2.88  17 2.90
  28  0.000  0.751  0.751-   1 2.85  11 2.85  15 2.85  18 2.85  22 2.85   9 2.86  17 2.86  25 2.87
                            26 2.88  27 2.88  29 2.88  30 2.88
  29  0.747  0.500  0.747-  23 2.82  24 2.82  30 2.82  31 2.82  13 2.86  25 2.86  20 2.88  28 2.88
                             7 2.88  15 2.88   9 2.90
  30  0.747  0.747  0.500-  14 2.82  16 2.82  29 2.82  31 2.82  21 2.86  25 2.86  12 2.88  28 2.88
                             6 2.88  22 2.88  17 2.90
  31  0.500  0.747  0.747-  26 2.82  27 2.82  29 2.82  30 2.82  13 2.86  21 2.86  15 2.88  18 2.88
                            11 2.88  22 2.88   5 2.90
 
  LATTYP: Found a simple cubic cell.
 ALAT       =     8.0870520000
  
  Lattice vectors:
  
 A1 = (   8.0870520000,   0.0000000000,   0.0000000000)
 A2 = (   0.0000000000,   8.0870520000,   0.0000000000)
 A3 = (   0.0000000000,   0.0000000000,   8.0870520000)
 Subroutine PRICEL returns:
 Original cell was already a primitive cell.
 

Analysis of symmetry for initial positions (statically):

 Routine SETGRP: Setting up the symmetry group for a 
 simple cubic supercell.


 Subroutine GETGRP returns: Found 48 space group operations
 (whereof 48 operations were pure point group operations)
 out of a pool of 48 trial point group operations.


The static configuration has the point symmetry O_h .

Analysis of symmetry for dynamics (positions and initial velocities):

 Subroutine DYNSYM returns: Found 48 space group operations
 (whereof 48 operations were pure point group operations)
 out of a pool of 48 trial space group operations
 (whereof 48 operations were pure point group operations)
 and found also     1 'primitive' translations


The dynamic configuration has the point symmetry O_h .

Analysis of constrained symmetry for selective dynamics:

 Subroutine DYNSYM returns: Found  4 space group operations
 (whereof  4 operations were pure point group operations)
 out of a pool of 48 trial space group operations
 (whereof 48 operations were pure point group operations)
 and found also     1 'primitive' translations


The constrained configuration has the point symmetry C_2v.
 
 
 KPOINTS: Automatic kpoint scheme                 

Automatic generation of k-mesh.
 
 Subroutine IBZKPT returns following result:
 ===========================================
 
 Found      2 irreducible k-points:
 
 Following reciprocal coordinates:
            Coordinates               Weight
  0.250000  0.250000  0.250000      4.000000
 -0.250000  0.250000  0.250000      4.000000
 
 Following cartesian coordinates:
            Coordinates               Weight
  0.030914  0.030914  0.030914      4.000000
 -0.030914  0.030914  0.030914      4.000000
 
 
 Subroutine IBZKPT_HF returns following result:
 ==============================================
 
 Found      8 k-points in 1st BZ
 the following      8 k-points will be used (e.g. in the exchange kernel)
 Following reciprocal coordinates:   # in IRBZ
  0.250000  0.250000  0.250000       1
 -0.250000  0.250000  0.250000       2
  0.250000 -0.250000  0.250000       1
  0.250000 -0.250000 -0.250000       2
 -0.250000 -0.250000  0.250000       2
  0.250000  0.250000 -0.250000       2
 -0.250000 -0.250000 -0.250000       1
 -0.250000  0.250000 -0.250000       1


--------------------------------------------------------------------------------------------------------




 Dimension of arrays:
   k-points           NKPTS =      2   k-points in BZ     NKDIM =      2   number of bands    NBANDS=     72
   number of dos      NEDOS =    301   number of ions     NIONS =     31
   non local maximal  LDIM  =      4   non local SUM 2l+1 LMDIM =      8
   total plane-waves  NPLWV = 110592
   max r-space proj   IRMAX =      1   max aug-charges    IRDMAX=   8337
   dimension x,y,z NGX =    48 NGY =   48 NGZ =   48
   dimension x,y,z NGXF=    96 NGYF=   96 NGZF=   96
   support grid    NGXF=    96 NGYF=   96 NGZF=   96
   ions per type =              31
 NGX,Y,Z   is equivalent  to a cutoff of   9.87,  9.87,  9.87 a.u.
 NGXF,Y,Z  is equivalent  to a cutoff of  19.73, 19.73, 19.73 a.u.


 I would recommend the setting:
   dimension x,y,z NGX =    46 NGY =   46 NGZ =   46
 SYSTEM =  unknown system                          
 POSCAR =  Al31                                    

 Startparameter for this run:
   NWRITE =      2    write-flag & timer
   PREC   = accura    medium, high low
   ISTART =      0    job   : 0-new  1-cont  2-samecut
   ICHARG =      2    charge: 1-file 2-atom 10-const
   ISPIN  =      1    spin polarized calculation?
   LNONCOLLINEAR =      F non collinear calculations
   LSORBIT =      F    spin-orbit coupling
   INIWAV =      1    electr: 0-lowe 1-rand  2-diag
   LASPH  =      F    aspherical Exc in radial PAW
   METAGGA=      F    non-selfconsistent MetaGGA calc.

 Electronic Relaxation 1
   ENCUT  =  300.0 eV  22.05 Ry    4.70 a.u.  11.42 11.42 11.42*2*pi/ulx,y,z
   ENINI  =  300.0     initial cutoff
   ENAUG  =  291.1 eV  augmentation charge cutoff
   NELM   =     60;   NELMIN=  2; NELMDL=-12     # of ELM steps 
   EDIFF  = 0.1E-05   stopping-criterion for ELM
   LREAL  =      F    real-space projection
   LCOMPAT=      F    compatible to vasp.4.4
   LREAL_COMPAT= F    compatible to vasp.4.5.1-3
   GGA_COMPAT  = T    GGA compatible to vasp.4.4-vasp.4.6
   LMAXPAW     = -100 max onsite density
   LMAXMIX     =    2 max onsite mixed and CHGCAR
   VOSKOWN=      0    Vosko Wilk Nusair interpolation
   ROPT   =    0.00000
 Ionic relaxation
   EDIFFG = 0.5E-01   stopping-criterion for IOM
   NSW    =    382    number of steps for IOM
   NBLOCK =      1;   KBLOCK =    191    inner block; outer block 
   IBRION =      5    ionic relax: 0-MD 1-quasi-New 2-CG
   NFREE  =      2    steps in history (QN), initial steepest desc. (CG)
   ISIF   =      2    stress and relaxation
   IWAVPR =     11    prediction:  0-non 1-charg 2-wave 3-comb
   ISYM   =      2    0-nonsym 1-usesym 2-fastsym
   LCORR  =      T    Harris-Foulkes like correction to forces

   POTIM  = 0.5000    time-step for ionic-motion
   TEIN   =    0.0    initial temperature
   TEBEG  =    0.0;   TEEND  =   0.0 temperature during run
   SMASS  =  -3.00    Nose mass-parameter (am)
   estimated Nose-frequenzy (Omega)   =  0.10E-29 period in steps =****** mass=  -0.149E-26a.u.
   NPACO  =    256;   APACO  = 16.0  distance and # of slots for P.C.
   PSTRESS=    0.0 pullay stress

  Mass of Ions in am
   POMASS =  26.98
  Ionic Valenz
   ZVAL   =   3.00
  Atomic Wigner-Seitz radii
   RWIGS  =  -1.00
   NELECT =      93.0000    total number of electrons
   NUPDOWN=      -1.0000    fix difference up-down

 DOS related values:
   EMIN   =  10.00;   EMAX   =-10.00  energy-range for DOS
   EFERMI =   0.00
   ISMEAR =     1;   SIGMA  =   0.20  broadening in eV -4-tet -1-fermi 0-gaus

 Electronic relaxation 2 (details)
   IALGO  =     48    algorithm
   LDIAG  =      T    sub-space diagonalisation
   IMIX   =      4    mixing-type and parameters
     AMIX     =   0.40;   BMIX     =  1.00
     AMIX_MAG =   1.60;   BMIX_MAG =  1.00
     AMIN     =   0.10
     WC   =   100.;   INIMIX=   1;  MIXPRE=   1

 Intra band minimization:
   WEIMIN = 0.0010     energy-eigenvalue tresh-hold
   EBREAK =  0.40E-08  absolut break condition
   DEPER  =   0.30     relativ break condition  

   TIME   =   0.40     timestep for ELM

  volume/ion in A,a.u.               =      17.06       115.13
  Fermi-wavevector in a.u.,A,eV,Ry     =   0.917161  1.733183 11.445007  0.841184
  Thomas-Fermi vector in A             =   2.042098
 
 Write flags
   LWAVE  =      F    write WAVECAR
   LCHARG =      F    write CHGCAR
   LVTOT  =      F    write LOCPOT, local potential
   LELF   =      F    write electronic localiz. function (ELF)
   LORBIT =      0    0 simple, 1 ext, 2 COOP (PROOUT)


 Dipole corrections
   LMONO  =      F    monopole corrections only (constant potential shift)
   LDIPOL =      F    correct potential (dipole corrections)
   IDIPOL =      0    1-x, 2-y, 3-z, 4-all directions 
   EPSILON=  1.0000000 bulk dielectric constant

 Exchange correlation treatment:
   GGA     =    --    GGA type
   LEXCH   =     8    internal setting for exchange type
   VOSKOWN=      0    Vosko Wilk Nusair interpolation
   LHFCALC =     F    Hartree Fock is set to
   LHFONE  =     F    Hartree Fock one center treatment
   AEXX    =    0.0000 exact exchange contribution

 Linear response parameters
   LEPSILON=     F    determine dielectric tensor
   LRPA    =     F    only Hartree local field effects (RPA)
   LNABLA  =     F    use nabla operator in PAW spheres
   LVEL    =     F    velocity operator in full k-point grid
   LINTERFAST=   F  fast interpolation
   KINTER  =     0    interpolate to denser k-point grid
   CSHIFT  =0.1000    complex shift for real part using Kramers Kronig
   OMEGAMAX=  -1.0    maximum frequency

 Orbital magnetization related:
   ORBITALMAG=     F  switch on orbital magnetization
   LCHIMAG   =     F  perturbation theory with respect to B field



--------------------------------------------------------------------------------------------------------


 finite differences
   using selective dynamics as specified on POSCAR
 charge density and potential will be updated during run
 non-spin polarized calculation
 RMM-DIIS sequential band-by-band
 perform sub-space diagonalisation
    before iterative eigenvector-optimisation
 modified Broyden-mixing scheme, WC =      100.0
 initial mixing is a Kerker type mixing with AMIX =  0.4000 and BMIX =      1.0000
 Hartree-type preconditioning will be used
 using additional bands           25
 reciprocal scheme for non local part
 use partial core corrections
 calculate Harris-corrections to forces 
   (improved forces if not selfconsistent)
 use gradient corrections 
 use of overlap-Matrix (Vanderbilt PP)
 Methfessel and Paxton  Order N= 1 SIGMA  =   0.20


--------------------------------------------------------------------------------------------------------


  energy-cutoff  :      300.00
  volume of cell :      528.90
      direct lattice vectors                 reciprocal lattice vectors
     8.087052000  0.000000000  0.000000000     0.123654454  0.000000000  0.000000000
     0.000000000  8.087052000  0.000000000     0.000000000  0.123654454  0.000000000
     0.000000000  0.000000000  8.087052000     0.000000000  0.000000000  0.123654454

  length of vectors
     8.087052000  8.087052000  8.087052000     0.123654454  0.123654454  0.123654454


 
 k-points in units of 2pi/SCALE and weight: Automatic kpoint scheme                 
   0.03091361  0.03091361  0.03091361       0.500
  -0.03091361  0.03091361  0.03091361       0.500
 
 k-points in reciprocal lattice and weights: Automatic kpoint scheme                 
   0.25000000  0.25000000  0.25000000       0.500
  -0.25000000  0.25000000  0.25000000       0.500
 
 position of ions in fractional coordinates (direct lattice) 
   0.00000000  0.00000000  0.00000000
   0.24944000  0.00000000  0.24944000
   0.24944000  0.24944000  0.00000000
   0.00000000  0.24944000  0.24944000
   0.50000000  0.00000000  0.00000000
   0.75056000  0.00000000  0.24944000
   0.75056000  0.24944000  0.00000000
   0.50000000  0.25326900  0.25326900
   0.00000000  0.50000000  0.00000000
   0.25326900  0.50000000  0.25326900
   0.24944000  0.75056000  0.00000000
   0.00000000  0.75056000  0.24944000
   0.50000000  0.50000000  0.00000000
   0.74673100  0.50000000  0.25326900
   0.75056000  0.75056000  0.00000000
   0.50000000  0.74673100  0.25326900
   0.00000000  0.00000000  0.50000000
   0.24944000  0.00000000  0.75056000
   0.25326900  0.25326900  0.50000000
   0.00000000  0.24944000  0.75056000
   0.50000000  0.00000000  0.50000000
   0.75056000  0.00000000  0.75056000
   0.74673100  0.25326900  0.50000000
   0.50000000  0.25326900  0.74673100
   0.00000000  0.50000000  0.50000000
   0.25326900  0.50000000  0.74673100
   0.25326900  0.74673100  0.50000000
   0.00000000  0.75056000  0.75056000
   0.74673100  0.50000000  0.74673100
   0.74673100  0.74673100  0.50000000
   0.50000000  0.74673100  0.74673100
 
 position of ions in cartesian coordinates  (Angst):
   0.00000000  0.00000000  0.00000000
   2.01723425  0.00000000  2.01723425
   2.01723425  2.01723425  0.00000000
   0.00000000  2.01723425  2.01723425
   4.04352600  0.00000000  0.00000000
   6.06981775  0.00000000  2.01723425
   6.06981775  2.01723425  0.00000000
   4.04352600  2.04819957  2.04819957
   0.00000000  4.04352600  0.00000000
   2.04819957  4.04352600  2.04819957
   2.01723425  6.06981775  0.00000000
   0.00000000  6.06981775  2.01723425
   4.04352600  4.04352600  0.00000000
   6.03885243  4.04352600  2.04819957
   6.06981775  6.06981775  0.00000000
   4.04352600  6.03885243  2.04819957
   0.00000000  0.00000000  4.04352600
   2.01723425  0.00000000  6.06981775
   2.04819957  2.04819957  4.04352600
   0.00000000  2.01723425  6.06981775
   4.04352600  0.00000000  4.04352600
   6.06981775  0.00000000  6.06981775
   6.03885243  2.04819957  4.04352600
   4.04352600  2.04819957  6.03885243
   0.00000000  4.04352600  4.04352600
   2.04819957  4.04352600  6.03885243
   2.04819957  6.03885243  4.04352600
   0.00000000  6.06981775  6.06981775
   6.03885243  4.04352600  6.03885243
   6.03885243  6.03885243  4.04352600
   4.04352600  6.03885243  6.03885243
 


--------------------------------------------------------------------------------------------------------


 k-point  1 :  0.25000.25000.2500  plane waves:    6238
 k-point  2 :  -.25000.25000.2500  plane waves:    6238

 maximum and minimum number of plane-waves per node :    6238   6238

 maximum number of plane-waves:    6238
 maximal index in each direction: 
   IXMAX= 11   IYMAX= 11   IZMAX= 11
   IXMIN=-11   IYMIN=-11   IZMIN=-11

 NGX is ok and might be reduce to  46
 NGY is ok and might be reduce to  46
 NGZ is ok and might be reduce to  46

 serial   3D FFT for wavefunctions
 parallel 3D FFT for charge:
    minimum data exchange during FFTs selected (reduces bandwidth)


 total amount of memory used by VASP on root node  59241. kBytes
========================================================================

   base      :    30000. kBytes
   nonl-proj :     3893. kBytes
   fftplans  :     2983. kBytes
   grid      :    21024. kBytes
   one-center:       95. kBytes
   wavefun   :     1246. kBytes
 
 Broyden mixing: mesh for mixing (old mesh)
   NGX = 23   NGY = 23   NGZ = 23
  (NGX  = 96   NGY  = 96   NGZ  = 96)
  gives a total of  12167 points

 initial charge density was supplied:
 charge density of overlapping atoms calculated
 number of electron   93.0000000 magnetization 
 keeping initial charge density in first step


--------------------------------------------------------------------------------------------------------


 Maximum index for augmentation-charges          535 (set IRDMAX)


--------------------------------------------------------------------------------------------------------


 First call to EWALD:  gamma=   0.219
 Maximum number of real-space cells 3x 3x 3
 Maximum number of reciprocal cells 3x 3x 3

    FEWALD:  cpu time    0.01: real time    0.01
   RESPFUN:  cpu time    0.00: real time    0.00


----------------------------------------- Iteration    1(   1)  ---------------------------------------


    POTLOK:  cpu time    0.15: real time    0.15
    SETDIJ:  cpu time    0.01: real time    0.01
    EDDIAG:  cpu time    0.30: real time    0.30
  RMM-DIIS:  cpu time    0.69: real time    0.69
    ORTHCH:  cpu time    0.02: real time    0.02
       DOS:  cpu time    0.00: real time    0.00
    --------------------------------------------
      LOOP:  cpu time    1.17: real time    1.17

 eigenvalue-minimisations  :   144
 total energy-change (2. order) : 0.2381781E+03  (-0.1563656E+04)
 number of electron   93.0000000 magnetization 
 augmentation part    93.0000000 magnetization 

 Free energy of the ion-electron system (eV)
  ---------------------------------------------------
  alpha Z        PSCENC =        -6.10292983
  Ewald energy   TEWEN  =     -2232.10820766
  -1/2 Hartree   DENC   =       -17.02602536
  -exchange  EXHF       =         0.00000000
  -V(xc)+E(xc)   XCENC  =      -814.85627415
  PAW double counting   =      1102.18190231     -111.56847430
  entropy T*S    EENTRO =         0.01764334
  eigenvalues    EBANDS =       657.97408828
  atomic energy  EATOM  =      1659.66634407
  ---------------------------------------------------
  free energy    TOTEN  =       238.17806670 eV

  energy without entropy =      238.16042336  energy(sigma->0) =      238.17218559


--------------------------------------------------------------------------------------------------------




----------------------------------------- Iteration    1(   2)  ---------------------------------------


    EDDIAG:  cpu time    0.30: real time    0.30
  RMM-DIIS:  cpu time    0.69: real time    0.69
    ORTHCH:  cpu time    0.02: real time    0.02
       DOS:  cpu time    0.00: real time    0.00
    --------------------------------------------
      LOOP:  cpu time    1.01: real time    1.01

 eigenvalue-minimisations  :   144
 total energy-change (2. order) :-0.2767716E+03  (-0.2644948E+03)
 number of electron   93.0000000 magnetization 
 augmentation part    93.0000000 magnetization 

 Free energy of the ion-electron system (eV)
  ---------------------------------------------------
  alpha Z        PSCENC =        -6.10292983
  Ewald energy   TEWEN  =     -2232.10820766
  -1/2 Hartree   DENC   =       -17.02602536
  -exchange  EXHF       =         0.00000000
  -V(xc)+E(xc)   XCENC  =      -814.85627415
  PAW double counting   =      1102.18190231     -111.56847430
  entropy T*S    EENTRO =         0.00541839
  eigenvalues    EBANDS =       381.21467469
  atomic energy  EATOM  =      1659.66634407
  ---------------------------------------------------
  free energy    TOTEN  =       -38.59357184 eV

  energy without entropy =      -38.59899023  energy(sigma->0) =      -38.59537797


--------------------------------------------------------------------------------------------------------




----------------------------------------- Iteration    1(   3)  ---------------------------------------


    EDDIAG:  cpu time    0.30: real time    0.30
  RMM-DIIS:  cpu time    0.70: real time    0.70
    ORTHCH:  cpu time    0.02: real time    0.02
       DOS:  cpu time    0.00: real time    0.00
    --------------------------------------------
      LOOP:  cpu time    1.02: real time    1.02

 eigenvalue-minimisations  :   144
 total energy-change (2. order) :-0.5712781E+02  (-0.5606261E+02)
 number of electron   93.0000000 magnetization 
 augmentation part    93.0000000 magnetization 

 Free energy of the ion-electron system (eV)
  ---------------------------------------------------
  alpha Z        PSCENC =        -6.10292983
  Ewald energy   TEWEN  =     -2232.10820766
  -1/2 Hartree   DENC   =       -17.02602536
  -exchange  EXHF       =         0.00000000
  -V(xc)+E(xc)   XCENC  =      -814.85627415
  PAW double counting   =      1102.18190231     -111.56847430
  entropy T*S    EENTRO =        -0.01129392
  eigenvalues    EBANDS =       324.10357889
  atomic energy  EATOM  =      1659.66634407
  ---------------------------------------------------
  free energy    TOTEN  =       -95.72137995 eV

  energy without entropy =      -95.71008603  energy(sigma->0) =      -95.71761531


--------------------------------------------------------------------------------------------------------




----------------------------------------- Iteration    1(   4)  ---------------------------------------


    EDDIAG:  cpu time    0.30: real time    0.30
  RMM-DIIS:  cpu time    0.70: real time    0.70
    ORTHCH:  cpu time    0.02: real time    0.02
       DOS:  cpu time    0.00: real time    0.00
    --------------------------------------------
      LOOP:  cpu time    1.02: real time    1.03

 eigenvalue-minimisations  :   144
 total energy-change (2. order) :-0.1335910E+02  (-0.1143508E+02)
 number of electron   93.0000000 magnetization 
 augmentation part    93.0000000 magnetization 

 Free energy of the ion-electron system (eV)
  ---------------------------------------------------
  alpha Z        PSCENC =        -6.10292983
  Ewald energy   TEWEN  =     -2232.10820766
  -1/2 Hartree   DENC   =       -17.02602536
  -exchange  EXHF       =         0.00000000
  -V(xc)+E(xc)   XCENC  =      -814.85627415
  PAW double counting   =      1102.18190231     -111.56847430
  entropy T*S    EENTRO =        -0.00620924
  eigenvalues    EBANDS =       310.73939043
  atomic energy  EATOM  =      1659.66634407
  ---------------------------------------------------
  free energy    TOTEN  =      -109.08048373 eV

  energy without entropy =     -109.07427449  energy(sigma->0) =     -109.07841398


--------------------------------------------------------------------------------------------------------




----------------------------------------- Iteration    1(   5)  ---------------------------------------


    EDDIAG:  cpu time    0.30: real time    0.30
  RMM-DIIS:  cpu time    0.69: real time    0.69
    ORTHCH:  cpu time    0.02: real time    0.02
       DOS:  cpu time    0.00: real time    0.00
    --------------------------------------------
      LOOP:  cpu time    1.01: real time    1.02

 eigenvalue-minimisations  :   144
 total energy-change (2. order) :-0.4249443E+01  (-0.3218971E+01)
 number of electron   93.0000000 magnetization 
 augmentation part    93.0000000 magnetization 

 Free energy of the ion-electron system (eV)
  ---------------------------------------------------
  alpha Z        PSCENC =        -6.10292983
  Ewald energy   TEWEN  =     -2232.10820766
  -1/2 Hartree   DENC   =       -17.02602536
  -exchange  EXHF       =         0.00000000
  -V(xc)+E(xc)   XCENC  =      -814.85627415
  PAW double counting   =      1102.18190231     -111.56847430
  entropy T*S    EENTRO =        -0.02951484
  eigenvalues    EBANDS =       306.51325347
  atomic energy  EATOM  =      1659.66634407
  ---------------------------------------------------
  free energy    TOTEN  =      -113.32992629 eV

  energy without entropy =     -113.30041145  energy(sigma->0) =     -113.32008801


--------------------------------------------------------------------------------------------------------




----------------------------------------- Iteration    1(   6)  ---------------------------------------


    EDDIAG:  cpu time    0.31: real time    0.31
  RMM-DIIS:  cpu time    0.70: real time    0.70
    ORTHCH:  cpu time    0.02: real time    0.02
       DOS:  cpu time    0.00: real time    0.00
    --------------------------------------------
      LOOP:  cpu time    1.03: real time    1.03

 eigenvalue-minimisations  :   144
 total energy-change (2. order) :-0.1347189E+01  (-0.1009923E+01)
 number of electron   93.0000000 magnetization 
 augmentation part    93.0000000 magnetization 

 Free energy of the ion-electron system (eV)
  ---------------------------------------------------
  alpha Z        PSCENC =        -6.10292983
  Ewald energy   TEWEN  =     -2232.10820766
  -1/2 Hartree   DENC   =       -17.02602536
  -exchange  EXHF       =         0.00000000
  -V(xc)+E(xc)   XCENC  =      -814.85627415
  PAW double counting   =      1102.18190231     -111.56847430
  entropy T*S    EENTRO =        -0.04304895
  eigenvalues    EBANDS =       305.17959888
  atomic energy  EATOM  =      1659.66634407
  ---------------------------------------------------
  free energy    TOTEN  =      -114.67711499 eV

  energy without entropy =     -114.63406603  energy(sigma->0) =     -114.66276534


--------------------------------------------------------------------------------------------------------




----------------------------------------- Iteration    1(   7)  ---------------------------------------


    EDDIAG:  cpu time    0.30: real time    0.30
  RMM-DIIS:  cpu time    0.72: real time    0.74
    ORTHCH:  cpu time    0.02: real time    0.02
       DOS:  cpu time    0.00: real time    0.00
    --------------------------------------------
      LOOP:  cpu time    1.04: real time    1.06

 eigenvalue-minimisations  :   144
 total energy-change (2. order) :-0.4642769E+00  (-0.3574993E+00)
 number of electron   93.0000000 magnetization 
 augmentation part    93.0000000 magnetization 

 Free energy of the ion-electron system (eV)
  ---------------------------------------------------
  alpha Z        PSCENC =        -6.10292983
  Ewald energy   TEWEN  =     -2232.10820766
  -1/2 Hartree   DENC   =       -17.02602536
  -exchange  EXHF       =         0.00000000
  -V(xc)+E(xc)   XCENC  =      -814.85627415
  PAW double counting   =      1102.18190231     -111.56847430
  entropy T*S    EENTRO =        -0.05036830
  eigenvalues    EBANDS =       304.72264135
  atomic energy  EATOM  =      1659.66634407
  ---------------------------------------------------
  free energy    TOTEN  =      -115.14139187 eV

  energy without entropy =     -115.09102357  energy(sigma->0) =     -115.12460243


--------------------------------------------------------------------------------------------------------




----------------------------------------- Iteration    1(   8)  ---------------------------------------


    EDDIAG:  cpu time    0.30: real time    0.30
  RMM-DIIS:  cpu time    0.70: real time    0.70
    ORTHCH:  cpu time    0.02: real time    0.02
       DOS:  cpu time    0.00: real time    0.00
    --------------------------------------------
      LOOP:  cpu time    1.02: real time    1.02

 eigenvalue-minimisations  :   144
 total energy-change (2. order) :-0.1724355E+00  (-0.1384607E+00)
 number of electron   93.0000000 magnetization 
 augmentation part    93.0000000 magnetization 

 Free energy of the ion-electron system (eV)
  ---------------------------------------------------
  alpha Z        PSCENC =        -6.10292983
  Ewald energy   TEWEN  =     -2232.10820766
  -1/2 Hartree   DENC   =       -17.02602536
  -exchange  EXHF       =         0.00000000
  -V(xc)+E(xc)   XCENC  =      -814.85627415
  PAW double counting   =      1102.18190231     -111.56847430
  entropy T*S    EENTRO =        -0.05130955
  eigenvalues    EBANDS =       304.55114710
  atomic energy  EATOM  =      1659.66634407
  ---------------------------------------------------
  free energy    TOTEN  =      -115.31382737 eV

  energy without entropy =     -115.26251782  energy(sigma->0) =     -115.29672419


--------------------------------------------------------------------------------------------------------




----------------------------------------- Iteration    1(   9)  ---------------------------------------


    EDDIAG:  cpu time    0.30: real time    0.30
  RMM-DIIS:  cpu time    1.36: real time    1.36
    ORTHCH:  cpu time    0.02: real time    0.02
       DOS:  cpu time    0.00: real time    0.00
    --------------------------------------------
      LOOP:  cpu time    1.68: real time    1.68

 eigenvalue-minimisations  :   328
 total energy-change (2. order) :-0.9609048E-01  (-0.8460270E-01)
 number of electron   93.0000000 magnetization 
 augmentation part    93.0000000 magnetization 

 Free energy of the ion-electron system (eV)
  ---------------------------------------------------
  alpha Z        PSCENC =        -6.10292983
  Ewald energy   TEWEN  =     -2232.10820766
  -1/2 Hartree   DENC   =       -17.02602536
  -exchange  EXHF       =         0.00000000
  -V(xc)+E(xc)   XCENC  =      -814.85627415
  PAW double counting   =      1102.18190231     -111.56847430
  entropy T*S    EENTRO =        -0.05018587
  eigenvalues    EBANDS =       304.45393294
  atomic energy  EATOM  =      1659.66634407
  ---------------------------------------------------
  free energy    TOTEN  =      -115.40991785 eV

  energy without entropy =     -115.35973197  energy(sigma->0) =     -115.39318922


--------------------------------------------------------------------------------------------------------




----------------------------------------- Iteration    1(  10)  ---------------------------------------


    EDDIAG:  cpu time    0.30: real time    0.30
  RMM-DIIS:  cpu time    1.36: real time    1.36
    ORTHCH:  cpu time    0.02: real time    0.02
       DOS:  cpu time    0.00: real time    0.00
    --------------------------------------------
      LOOP:  cpu time    1.68: real time    1.69

 eigenvalue-minimisations  :   333
 total energy-change (2. order) :-0.1668532E-01  (-0.1071563E-01)
 number of electron   93.0000000 magnetization 
 augmentation part    93.0000000 magnetization 

 Free energy of the ion-electron system (eV)
  ---------------------------------------------------
  alpha Z        PSCENC =        -6.10292983
  Ewald energy   TEWEN  =     -2232.10820766
  -1/2 Hartree   DENC   =       -17.02602536
  -exchange  EXHF       =         0.00000000
  -V(xc)+E(xc)   XCENC  =      -814.85627415
  PAW double counting   =      1102.18190231     -111.56847430
  entropy T*S    EENTRO =        -0.05056839
  eigenvalues    EBANDS =       304.43763014
  atomic energy  EATOM  =      1659.66634407
  ---------------------------------------------------
  free energy    TOTEN  =      -115.42660316 eV

  energy without entropy =     -115.37603478  energy(sigma->0) =     -115.40974704


--------------------------------------------------------------------------------------------------------




----------------------------------------- Iteration    1(  11)  ---------------------------------------


    EDDIAG:  cpu time    0.30: real time    0.30
  RMM-DIIS:  cpu time    1.24: real time    1.24
    ORTHCH:  cpu time    0.02: real time    0.02
       DOS:  cpu time    0.00: real time    0.00
    --------------------------------------------
      LOOP:  cpu time    1.56: real time    1.57

 eigenvalue-minimisations  :   292
 total energy-change (2. order) :-0.8280710E-03  (-0.5222702E-03)
 number of electron   93.0000000 magnetization 
 augmentation part    93.0000000 magnetization 

 Free energy of the ion-electron system (eV)
  ---------------------------------------------------
  alpha Z        PSCENC =        -6.10292983
  Ewald energy   TEWEN  =     -2232.10820766
  -1/2 Hartree   DENC   =       -17.02602536
  -exchange  EXHF       =         0.00000000
  -V(xc)+E(xc)   XCENC  =      -814.85627415
  PAW double counting   =      1102.18190231     -111.56847430
  entropy T*S    EENTRO =        -0.05050462
  eigenvalues    EBANDS =       304.43673831
  atomic energy  EATOM  =      1659.66634407
  ---------------------------------------------------
  free energy    TOTEN  =      -115.42743124 eV

  energy without entropy =     -115.37692661  energy(sigma->0) =     -115.41059636


--------------------------------------------------------------------------------------------------------




----------------------------------------- Iteration    1(  12)  ---------------------------------------


    EDDIAG:  cpu time    0.30: real time    0.30
  RMM-DIIS:  cpu time    1.17: real time    1.17
    ORTHCH:  cpu time    0.02: real time    0.02
       DOS:  cpu time    0.00: real time    0.00
    CHARGE:  cpu time    0.19: real time    0.19
    MIXING:  cpu time    0.00: real time    0.00
    --------------------------------------------
      LOOP:  cpu time    1.68: real time    1.69

 eigenvalue-minimisations  :   267
 total energy-change (2. order) :-0.1995031E-04  (-0.1683152E-04)
 number of electron   92.9999995 magnetization 
 augmentation part    -1.1372848 magnetization 

 Broyden mixing:
  rms(total) = 0.53552E+00    rms(broyden)= 0.53550E+00
  rms(prec ) = 0.83750E+00
  weight for this iteration     100.00

 Free energy of the ion-electron system (eV)
  ---------------------------------------------------
  alpha Z        PSCENC =        -6.10292983
  Ewald energy   TEWEN  =     -2232.10820766
  -1/2 Hartree   DENC   =       -17.02602536
  -exchange  EXHF       =         0.00000000
  -V(xc)+E(xc)   XCENC  =      -814.85627415
  PAW double counting   =      1102.18190231     -111.56847430
  entropy T*S    EENTRO =        -0.05050350
  eigenvalues    EBANDS =       304.43671723
  atomic energy  EATOM  =      1659.66634407
  ---------------------------------------------------
  free energy    TOTEN  =      -115.42745119 eV

  energy without entropy =     -115.37694769  energy(sigma->0) =     -115.41061669


--------------------------------------------------------------------------------------------------------




----------------------------------------- Iteration    1(  13)  ---------------------------------------


    POTLOK:  cpu time    0.14: real time    0.14
    SETDIJ:  cpu time    0.01: real time    0.01
    EDDIAG:  cpu time    0.30: real time    0.30
  RMM-DIIS:  cpu time    1.24: real time    1.24
    ORTHCH:  cpu time    0.02: real time    0.02
       DOS:  cpu time    0.00: real time    0.00
    CHARGE:  cpu time    0.19: real time    0.19
    MIXING:  cpu time    0.00: real time    0.00
    --------------------------------------------
      LOOP:  cpu time    1.92: real time    1.92

 eigenvalue-minimisations  :   288
 total energy-change (2. order) : 0.5334794E+00  (-0.3541881E-01)
 number of electron   92.9999995 magnetization 
 augmentation part    -1.1516257 magnetization 

 Broyden mixing:
  rms(total) = 0.32915E+00    rms(broyden)= 0.32915E+00
  rms(prec ) = 0.48393E+00
  weight for this iteration     100.00

 eigenvalues of (default mixing * dielectric matrix)
  average eigenvalue GAMMA=   2.5216
  2.5216

 Free energy of the ion-electron system (eV)
  ---------------------------------------------------
  alpha Z        PSCENC =        -6.10292983
  Ewald energy   TEWEN  =     -2232.10820766
  -1/2 Hartree   DENC   =       -17.74907200
  -exchange  EXHF       =         0.00000000
  -V(xc)+E(xc)   XCENC  =      -813.76297537
  PAW double counting   =      1103.93499373     -113.43891080
  entropy T*S    EENTRO =        -0.04964949
  eigenvalues    EBANDS =       304.71643555
  atomic energy  EATOM  =      1659.66634407
  ---------------------------------------------------
  free energy    TOTEN  =      -114.89397180 eV

  energy without entropy =     -114.84432232  energy(sigma->0) =     -114.87742198


--------------------------------------------------------------------------------------------------------




----------------------------------------- Iteration    1(  14)  ---------------------------------------


    POTLOK:  cpu time    0.14: real time    0.14
    SETDIJ:  cpu time    0.01: real time    0.01
    EDDIAG:  cpu time    0.30: real time    0.30
  RMM-DIIS:  cpu time    1.25: real time    1.25
    ORTHCH:  cpu time    0.02: real time    0.02
       DOS:  cpu time    0.00: real time    0.00
    CHARGE:  cpu time    0.19: real time    0.19
    MIXING:  cpu time    0.00: real time    0.00
    --------------------------------------------
      LOOP:  cpu time    1.93: real time    1.93

 eigenvalue-minimisations  :   288
 total energy-change (2. order) : 0.2635208E+00  (-0.1578851E-01)
 number of electron   92.9999995 magnetization 
 augmentation part    -1.1715600 magnetization 

 Broyden mixing:
  rms(total) = 0.96264E-01    rms(broyden)= 0.96264E-01
  rms(prec ) = 0.14196E+00
  weight for this iteration     100.00

 eigenvalues of (default mixing * dielectric matrix)
  average eigenvalue GAMMA=   1.8663
  2.6081  1.1245

 Free energy of the ion-electron system (eV)
  ---------------------------------------------------
  alpha Z        PSCENC =        -6.10292983
  Ewald energy   TEWEN  =     -2232.10820766
  -1/2 Hartree   DENC   =       -18.71487491
  -exchange  EXHF       =         0.00000000
  -V(xc)+E(xc)   XCENC  =      -812.22957562
  PAW double counting   =      1105.60574718     -115.27492567
  entropy T*S    EENTRO =        -0.04989009
  eigenvalues    EBANDS =       304.57786150
  atomic energy  EATOM  =      1659.66634407
  ---------------------------------------------------
  free energy    TOTEN  =      -114.63045103 eV

  energy without entropy =     -114.58056094  energy(sigma->0) =     -114.61382100


--------------------------------------------------------------------------------------------------------




----------------------------------------- Iteration    1(  15)  ---------------------------------------


    POTLOK:  cpu time    0.14: real time    0.15
    SETDIJ:  cpu time    0.01: real time    0.01
    EDDIAG:  cpu time    0.30: real time    0.30
  RMM-DIIS:  cpu time    1.25: real time    1.25
    ORTHCH:  cpu time    0.02: real time    0.02
       DOS:  cpu time    0.00: real time    0.00
    CHARGE:  cpu time    0.19: real time    0.19
    MIXING:  cpu time    0.00: real time    0.00
    --------------------------------------------
      LOOP:  cpu time    1.93: real time    1.93

 eigenvalue-minimisations  :   288
 total energy-change (2. order) : 0.2688318E-01  (-0.1833798E-02)
 number of electron   92.9999994 magnetization 
 augmentation part    -1.1819122 magnetization 

 Broyden mixing:
  rms(total) = 0.13082E-01    rms(broyden)= 0.13082E-01
  rms(prec ) = 0.23172E-01
  weight for this iteration     100.00

 eigenvalues of (default mixing * dielectric matrix)
  average eigenvalue GAMMA=   1.8268
  2.6139  1.0160  1.8504

 Free energy of the ion-electron system (eV)
  ---------------------------------------------------
  alpha Z        PSCENC =        -6.10292983
  Ewald energy   TEWEN  =     -2232.10820766
  -1/2 Hartree   DENC   =       -19.21459089
  -exchange  EXHF       =         0.00000000
  -V(xc)+E(xc)   XCENC  =      -811.53458375
  PAW double counting   =      1106.42887281     -116.18847823
  entropy T*S    EENTRO =        -0.05029885
  eigenvalues    EBANDS =       304.50030447
  atomic energy  EATOM  =      1659.66634407
  ---------------------------------------------------
  free energy    TOTEN  =      -114.60356785 eV

  energy without entropy =     -114.55326900  energy(sigma->0) =     -114.58680157


--------------------------------------------------------------------------------------------------------




----------------------------------------- Iteration    1(  16)  ---------------------------------------


    POTLOK:  cpu time    0.14: real time    0.14
    SETDIJ:  cpu time    0.01: real time    0.01
    EDDIAG:  cpu time    0.30: real time    0.30
  RMM-DIIS:  cpu time    1.24: real time    1.24
    ORTHCH:  cpu time    0.02: real time    0.02
       DOS:  cpu time    0.00: real time    0.00
    CHARGE:  cpu time    0.19: real time    0.19
    MIXING:  cpu time    0.00: real time    0.00
    --------------------------------------------
      LOOP:  cpu time    1.91: real time    1.92

 eigenvalue-minimisations  :   294
 total energy-change (2. order) : 0.6891359E-03  (-0.2351093E-03)
 number of electron   92.9999994 magnetization 
 augmentation part    -1.1843221 magnetization 

 Broyden mixing:
  rms(total) = 0.41757E-02    rms(broyden)= 0.41757E-02
  rms(prec ) = 0.62630E-02
  weight for this iteration     100.00

 eigenvalues of (default mixing * dielectric matrix)
  average eigenvalue GAMMA=   1.8690
  2.6749  2.3139  1.0246  1.4628

 Free energy of the ion-electron system (eV)
  ---------------------------------------------------
  alpha Z        PSCENC =        -6.10292983
  Ewald energy   TEWEN  =     -2232.10820766
  -1/2 Hartree   DENC   =       -19.20558569
  -exchange  EXHF       =         0.00000000
  -V(xc)+E(xc)   XCENC  =      -811.46444694
  PAW double counting   =      1106.73119224     -116.51821078
  entropy T*S    EENTRO =        -0.05036315
  eigenvalues    EBANDS =       304.44932902
  atomic energy  EATOM  =      1659.66634407
  ---------------------------------------------------
  free energy    TOTEN  =      -114.60287872 eV

  energy without entropy =     -114.55251557  energy(sigma->0) =     -114.58609100


--------------------------------------------------------------------------------------------------------




----------------------------------------- Iteration    1(  17)  ---------------------------------------


    POTLOK:  cpu time    0.14: real time    0.14
    SETDIJ:  cpu time    0.01: real time    0.01
    EDDIAG:  cpu time    0.30: real time    0.30
  RMM-DIIS:  cpu time    1.30: real time    1.30
    ORTHCH:  cpu time    0.02: real time    0.02
       DOS:  cpu time    0.00: real time    0.00
    CHARGE:  cpu time    0.19: real time    0.19
    MIXING:  cpu time    0.01: real time    0.00
    --------------------------------------------
      LOOP:  cpu time    1.97: real time    1.97

 eigenvalue-minimisations  :   300
 total energy-change (2. order) :-0.3760607E-04  (-0.2206915E-04)
 number of electron   92.9999994 magnetization 
 augmentation part    -1.1851596 magnetization 

 Broyden mixing:
  rms(total) = 0.90746E-03    rms(broyden)= 0.90741E-03
  rms(prec ) = 0.17043E-02
  weight for this iteration     100.00

 eigenvalues of (default mixing * dielectric matrix)
  average eigenvalue GAMMA=   1.8489
  2.5903  2.5903  1.0277  1.5180  1.5180

 Free energy of the ion-electron system (eV)
  ---------------------------------------------------
  alpha Z        PSCENC =        -6.10292983
  Ewald energy   TEWEN  =     -2232.10820766
  -1/2 Hartree   DENC   =       -19.21850969
  -exchange  EXHF       =         0.00000000
  -V(xc)+E(xc)   XCENC  =      -811.44316811
  PAW double counting   =      1106.81477643     -116.61389705
  entropy T*S    EENTRO =        -0.05028865
  eigenvalues    EBANDS =       304.45296416
  atomic energy  EATOM  =      1659.66634407
  ---------------------------------------------------
  free energy    TOTEN  =      -114.60291632 eV

  energy without entropy =     -114.55262767  energy(sigma->0) =     -114.58615344


--------------------------------------------------------------------------------------------------------




----------------------------------------- Iteration    1(  18)  ---------------------------------------


    POTLOK:  cpu time    0.14: real time    0.14
    SETDIJ:  cpu time    0.01: real time    0.01
    EDDIAG:  cpu time    0.30: real time    0.30
  RMM-DIIS:  cpu time    1.30: real time    1.30
    ORTHCH:  cpu time    0.02: real time    0.02
       DOS:  cpu time    0.00: real time    0.00
    CHARGE:  cpu time    0.19: real time    0.19
    MIXING:  cpu time    0.00: real time    0.00
    --------------------------------------------
      LOOP:  cpu time    1.97: real time    1.97

 eigenvalue-minimisations  :   309
 total energy-change (2. order) :-0.1014470E-04  (-0.2365339E-05)
 number of electron   92.9999994 magnetization 
 augmentation part    -1.1855328 magnetization 

 Broyden mixing:
  rms(total) = 0.40635E-03    rms(broyden)= 0.40631E-03
  rms(prec ) = 0.74196E-03
  weight for this iteration     100.00

 eigenvalues of (default mixing * dielectric matrix)
  average eigenvalue GAMMA=   1.8144
  2.7529  2.6025  2.0026  1.4695  1.0295  1.0295

 Free energy of the ion-electron system (eV)
  ---------------------------------------------------
  alpha Z        PSCENC =        -6.10292983
  Ewald energy   TEWEN  =     -2232.10820766
  -1/2 Hartree   DENC   =       -19.22633825
  -exchange  EXHF       =         0.00000000
  -V(xc)+E(xc)   XCENC  =      -811.44130364
  PAW double counting   =      1106.80662623     -116.60727460
  entropy T*S    EENTRO =        -0.05031761
  eigenvalues    EBANDS =       304.46047482
  atomic energy  EATOM  =      1659.66634407
  ---------------------------------------------------
  free energy    TOTEN  =      -114.60292647 eV

  energy without entropy =     -114.55260886  energy(sigma->0) =     -114.58615393


--------------------------------------------------------------------------------------------------------




----------------------------------------- Iteration    1(  19)  ---------------------------------------


    POTLOK:  cpu time    0.14: real time    0.14
    SETDIJ:  cpu time    0.01: real time    0.01
    EDDIAG:  cpu time    0.30: real time    0.30
  RMM-DIIS:  cpu time    1.04: real time    1.04
    ORTHCH:  cpu time    0.02: real time    0.02
       DOS:  cpu time    0.00: real time    0.00
    CHARGE:  cpu time    0.19: real time    0.19
    MIXING:  cpu time    0.00: real time    0.00
    --------------------------------------------
      LOOP:  cpu time    1.70: real time    1.71

 eigenvalue-minimisations  :   224
 total energy-change (2. order) :-0.3835245E-05  (-0.4058240E-06)
 number of electron   92.9999994 magnetization 
 augmentation part    -1.1855956 magnetization 

 Broyden mixing:
  rms(total) = 0.10143E-03    rms(broyden)= 0.10141E-03
  rms(prec ) = 0.19049E-03
  weight for this iteration     100.00

 eigenvalues of (default mixing * dielectric matrix)
  average eigenvalue GAMMA=   1.7810
  2.8319  2.5602  1.8342  1.8342  1.4642  0.9713  0.9713

 Free energy of the ion-electron system (eV)
  ---------------------------------------------------
  alpha Z        PSCENC =        -6.10292983
  Ewald energy   TEWEN  =     -2232.10820766
  -1/2 Hartree   DENC   =       -19.23121644
  -exchange  EXHF       =         0.00000000
  -V(xc)+E(xc)   XCENC  =      -811.44005566
  PAW double counting   =      1106.78307120     -116.58428075
  entropy T*S    EENTRO =        -0.05031050
  eigenvalues    EBANDS =       304.46465528
  atomic energy  EATOM  =      1659.66634407
  ---------------------------------------------------
  free energy    TOTEN  =      -114.60293030 eV

  energy without entropy =     -114.55261981  energy(sigma->0) =     -114.58616014


--------------------------------------------------------------------------------------------------------




----------------------------------------- Iteration    1(  20)  ---------------------------------------


    POTLOK:  cpu time    0.14: real time    0.14
    SETDIJ:  cpu time    0.01: real time    0.01
    EDDIAG:  cpu time    0.30: real time    0.30
  RMM-DIIS:  cpu time    0.84: real time    0.84
    ORTHCH:  cpu time    0.02: real time    0.02
       DOS:  cpu time    0.00: real time    0.00
    --------------------------------------------
      LOOP:  cpu time    1.32: real time    1.32

 eigenvalue-minimisations  :   180
 total energy-change (2. order) : 0.9067116E-07  (-0.5250532E-07)
 number of electron   92.9999994 magnetization 
 augmentation part    -1.1855956 magnetization 

 Free energy of the ion-electron system (eV)
  ---------------------------------------------------
  alpha Z        PSCENC =        -6.10292983
  Ewald energy   TEWEN  =     -2232.10820766
  -1/2 Hartree   DENC   =       -19.23207701
  -exchange  EXHF       =         0.00000000
  -V(xc)+E(xc)   XCENC  =      -811.43999659
  PAW double counting   =      1106.77546801     -116.57656899
  entropy T*S    EENTRO =        -0.05030846
  eigenvalues    EBANDS =       304.46534626
  atomic energy  EATOM  =      1659.66634407
  ---------------------------------------------------
  free energy    TOTEN  =      -114.60293021 eV

  energy without entropy =     -114.55262176  energy(sigma->0) =     -114.58616073


--------------------------------------------------------------------------------------------------------




 average (electrostatic) potential at core
  the test charge radii are     1.0406
  (the norm of the test charge is              1.0000)
       1 -72.9236       2 -73.0113       3 -73.0113       4 -73.0113       5 -73.0546
       6 -73.0113       7 -73.0113       8 -72.9734       9 -73.0546      10 -72.9734
      11 -73.0113      12 -73.0113      13 -73.0623      14 -72.9734      15 -73.0113
      16 -72.9734      17 -73.0546      18 -73.0113      19 -72.9734      20 -73.0113
      21 -73.0623      22 -73.0113      23 -72.9734      24 -72.9734      25 -73.0623
      26 -72.9734      27 -72.9734      28 -73.0113      29 -72.9734      30 -72.9734
      31 -72.9734
 
 
 
 E-fermi :   7.8783     XC(G=0): -10.0466     alpha+bet :-14.3870
   add alpha+bet to get absolut eigen values

 k-point   1 :       0.2500    0.2500    0.2500
  band No.  band energies     occupation 
      1      -2.9338      2.00000
      2      -1.8583      2.00000
      3      -1.8583      2.00000
      4      -1.6868      2.00000
      5      -0.7432      2.00000
      6      -0.7432      2.00000
      7      -0.4979      2.00000
      8       0.3603      2.00000
      9       0.3603      2.00000
     10       0.4262      2.00000
     11       0.6048      2.00000
     12       1.4284      2.00000
     13       1.4284      2.00000
     14       1.4578      2.00000
     15       1.5629      2.00000
     16       1.5629      2.00000
     17       1.9076      2.00000
     18       2.6342      2.00000
     19       2.6342      2.00000
     20       2.7518      2.00000
     21       3.5952      2.00000
     22       3.5952      2.00000
     23       3.6959      2.00000
     24       3.6976      2.00000
     25       3.6976      2.00000
     26       3.9888      2.00000
     27       4.6226      2.00000
     28       4.6226      2.00000
     29       4.6550      2.00000
     30       4.7168      2.00000
     31       4.7168      2.00000
     32       4.9105      2.00000
     33       4.9105      2.00000
     34       4.9147      2.00000
     35       5.1739      2.00000
     36       5.7637      2.00000
     37       5.7637      2.00000
     38       6.2218      2.00000
     39       6.7774      2.00000
     40       6.7938      2.00000
     41       6.7938      2.00000
     42       6.9707      2.00000
     43       7.0223      2.00000
     44       7.0308      2.00000
     45       7.0308      2.00000
     46       7.8356      1.35220
     47       7.8816      0.97185
     48       7.8816      0.97185
     49       8.0963     -0.06426
     50       8.0963     -0.06426
     51       8.1539     -0.06509
     52       8.1959     -0.04721
     53       8.1959     -0.04721
     54       8.3188     -0.00787
     55       9.1494      0.00000
     56       9.1494      0.00000
     57       9.1815      0.00000
     58       9.4089      0.00000
     59       9.4089      0.00000
     60       9.4348      0.00000
     61       9.9874      0.00000
     62      10.0040      0.00000
     63      10.0042      0.00000
     64      10.0527      0.00000
     65      10.1288      0.00000
     66      10.1293      0.00000
     67      10.5328      0.00000
     68      10.5386      0.00000
     69      10.5935      0.00000
     70      11.0757      0.00000
     71      11.2281      0.00000
     72      11.3759      0.00000

 k-point   2 :      -0.2500    0.2500    0.2500
  band No.  band energies     occupation 
      1      -2.9338      2.00000
      2      -1.8583      2.00000
      3      -1.8583      2.00000
      4      -1.6868      2.00000
      5      -0.7432      2.00000
      6      -0.7432      2.00000
      7      -0.4979      2.00000
      8       0.3603      2.00000
      9       0.3603      2.00000
     10       0.4262      2.00000
     11       0.6048      2.00000
     12       1.4284      2.00000
     13       1.4284      2.00000
     14       1.4578      2.00000
     15       1.5629      2.00000
     16       1.5629      2.00000
     17       1.9076      2.00000
     18       2.6342      2.00000
     19       2.6342      2.00000
     20       2.7518      2.00000
     21       3.5952      2.00000
     22       3.5952      2.00000
     23       3.6959      2.00000
     24       3.6976      2.00000
     25       3.6976      2.00000
     26       3.9888      2.00000
     27       4.6226      2.00000
     28       4.6226      2.00000
     29       4.6550      2.00000
     30       4.7168      2.00000
     31       4.7168      2.00000
     32       4.9105      2.00000
     33       4.9105      2.00000
     34       4.9147      2.00000
     35       5.1739      2.00000
     36       5.7637      2.00000
     37       5.7637      2.00000
     38       6.2218      2.00000
     39       6.7774      2.00000
     40       6.7938      2.00000
     41       6.7938      2.00000
     42       6.9707      2.00000
     43       7.0223      2.00000
     44       7.0308      2.00000
     45       7.0308      2.00000
     46       7.8356      1.35220
     47       7.8816      0.97185
     48       7.8816      0.97185
     49       8.0963     -0.06425
     50       8.0963     -0.06426
     51       8.1539     -0.06509
     52       8.1959     -0.04721
     53       8.1959     -0.04721
     54       8.3188     -0.00787
     55       9.1494      0.00000
     56       9.1494      0.00000
     57       9.1815      0.00000
     58       9.4089      0.00000
     59       9.4089      0.00000
     60       9.4348      0.00000
     61       9.9874      0.00000
     62      10.0040      0.00000
     63      10.0042      0.00000
     64      10.0530      0.00000
     65      10.1287      0.00000
     66      10.1293      0.00000
     67      10.5326      0.00000
     68      10.5363      0.00000
     69      10.5871      0.00000
     70      10.9892      0.00000
     71      11.0354      0.00000
     72      11.3673      0.00000


--------------------------------------------------------------------------------------------------------


 soft charge-density along one line, spin component           1
         0         1         2         3         4         5         6         7         8         9
 total charge-density along one line
 
 pseudopotential strength for first ion, spin component:           1
  8.457  -0.006   0.000   0.000   0.000   0.000   0.000   0.000
 -0.006   0.000   0.000   0.000   0.000   0.000   0.000   0.000
  0.000   0.000   1.989   0.000   0.000  -0.026   0.000   0.000
  0.000   0.000   0.000   1.989   0.000   0.000  -0.026   0.000
  0.000   0.000   0.000   0.000   1.989   0.000   0.000  -0.026
  0.000   0.000  -0.026   0.000   0.000  -0.012   0.000   0.000
  0.000   0.000   0.000  -0.026   0.000   0.000  -0.012   0.000
  0.000   0.000   0.000   0.000  -0.026   0.000   0.000  -0.012
 total augmentation occupancy for first ion, spin component:           1
  1.327  -0.514   0.000   0.000   0.000   0.000   0.000   0.000
 -0.514   0.500   0.000   0.000   0.000   0.000   0.000   0.000
  0.000   0.000   0.746   0.000   0.000  -0.186   0.000   0.000
  0.000   0.000   0.000   0.746   0.000   0.000  -0.186   0.000
  0.000   0.000   0.000   0.000   0.746   0.000   0.000  -0.186
  0.000   0.000  -0.186   0.000   0.000   0.052   0.000   0.000
  0.000   0.000   0.000  -0.186   0.000   0.000   0.052   0.000
  0.000   0.000   0.000   0.000  -0.186   0.000   0.000   0.052


------------------------ aborting loop because EDIFF is reached ----------------------------------------




--------------------------------------------------------------------------------------------------------



  FREE ENERGIE OF THE ION-ELECTRON SYSTEM (eV)
  ---------------------------------------------------
  free  energy   TOTEN  =      -114.602930 eV

  energy  without entropy=     -114.552622  energy(sigma->0) =     -114.586161
 
    CHARGE:  cpu time    0.18: real time    0.18
    FORLOC:  cpu time    0.03: real time    0.03
    FORNL :  cpu time    0.46: real time    0.46
    STRESS:  cpu time    0.93: real time    0.93
    FORCOR:  cpu time    0.17: real time    0.17
    FORHAR:  cpu time    0.06: real time    0.06
    MIXING:  cpu time    0.00: real time    0.01

  FORCE on cell =-STRESS in cart. coord.  units (eV):
  Direction    XX          YY          ZZ          XY          YZ          ZX
  --------------------------------------------------------------------------------------
  Alpha Z    -6.10293    -6.10293    -6.10293
  Ewald    -744.03913  -744.03913  -744.03913     0.00000     0.00000     0.00000
  Hartree     6.41102     6.41100     6.41102     0.00000     0.00000     0.00000
  E(xc)    -264.13285  -264.13284  -264.13285     0.00000     0.00000     0.00000
  Local      -9.12121    -9.12118    -9.12121     0.00000     0.00000     0.00000
  n-local   585.60781   585.60781   585.60779     0.00000    -0.90210     0.00000
  augment   -31.62631   -31.62631   -31.62631     0.00001     0.00001     0.00000
  Kinetic   460.39673   460.39674   460.39673    -0.00001    -1.45087     0.00000
  Fock        0.00000     0.00000     0.00000     0.00000     0.00000     0.00000
  -------------------------------------------------------------------------------------
  Total      -2.60687    -2.60685    -2.60687     0.00000     0.00000     0.00000
  in kB      -7.89696    -7.89688    -7.89696     0.00000     0.00000     0.00000
  external pressure =       -7.90 kB  Pullay stress =        0.00 kB


 VOLUME and BASIS-vectors are now :
 -----------------------------------------------------------------------------
  energy-cutoff  :      300.00
  volume of cell :      528.90
      direct lattice vectors                 reciprocal lattice vectors
     8.087052000  0.000000000  0.000000000     0.123654454  0.000000000  0.000000000
     0.000000000  8.087052000  0.000000000     0.000000000  0.123654454  0.000000000
     0.000000000  0.000000000  8.087052000     0.000000000  0.000000000  0.123654454

  length of vectors
     8.087052000  8.087052000  8.087052000     0.123654454  0.123654454  0.123654454


 FORCES acting on ions
    electron-ion (+dipol)            ewald-force                    non-local-force                 convergence-correction
 -----------------------------------------------------------------------------------------------
   -.236E-05 0.597E-14 -.236E-05   -.290E-14 -.805E-14 -.810E-14   0.238E-05 0.000E+00 0.238E-05   -.598E-07 -.663E-14 -.598E-07
   -.234E+01 -.161E-13 -.234E+01   0.231E+01 -.777E-15 0.231E+01   0.470E-01 0.000E+00 0.470E-01   0.219E-03 -.864E-14 0.220E-03
   -.234E+01 -.234E+01 -.192E-05   0.231E+01 0.231E+01 -.855E-14   0.470E-01 0.470E-01 0.712E-06   0.224E-03 0.227E-03 0.111E-05
   -.202E-05 -.234E+01 -.234E+01   -.459E-14 0.231E+01 0.231E+01   0.712E-06 0.470E-01 0.470E-01   0.111E-05 0.228E-03 0.225E-03
   -.240E-05 -.147E-12 -.236E-05   -.778E-14 -.561E-14 -.109E-13   0.152E-05 0.000E+00 0.995E-06   0.654E-06 -.737E-14 0.514E-06
   0.234E+01 0.502E-14 -.234E+01   -.231E+01 -.322E-14 0.231E+01   -.470E-01 0.000E+00 0.470E-01   -.221E-03 -.917E-14 0.220E-03
   0.234E+01 -.234E+01 0.508E-05   -.231E+01 0.231E+01 -.633E-14   -.470E-01 0.470E-01 -.162E-05   -.224E-03 0.230E-03 -.244E-05
   -.155E-05 -.753E+01 -.753E+01   0.542E-14 0.762E+01 0.762E+01   0.128E-05 -.115E+00 -.115E+00   -.326E-08 0.165E-03 0.154E-03
   0.464E-05 -.913E-14 0.464E-05   0.716E-14 -.289E-14 -.135E-13   -.104E-05 0.000E+00 -.104E-05   -.324E-05 0.677E-14 -.324E-05
   -.753E+01 0.177E-13 -.753E+01   0.762E+01 -.352E-13 0.762E+01   -.115E+00 0.000E+00 -.115E+00   0.158E-03 0.886E-14 0.159E-03
   -.234E+01 0.234E+01 -.202E-05   0.231E+01 -.231E+01 -.248E-13   0.470E-01 -.470E-01 0.712E-06   0.224E-03 -.227E-03 0.111E-05
   -.202E-05 0.234E+01 -.234E+01   -.893E-14 -.231E+01 0.231E+01   0.712E-06 -.470E-01 0.470E-01   0.111E-05 -.228E-03 0.225E-03
   -.352E-05 0.171E-12 -.311E-05   -.413E-14 -.111E-15 -.107E-13   0.170E-06 0.529E-22 0.398E-05   0.254E-05 0.746E-14 -.633E-06
   0.753E+01 0.491E-13 -.753E+01   -.762E+01 -.197E-13 0.762E+01   0.115E+00 0.000E+00 -.115E+00   -.158E-03 0.951E-14 0.157E-03
   0.234E+01 0.234E+01 0.498E-05   -.231E+01 -.231E+01 -.172E-14   -.470E-01 -.470E-01 -.162E-05   -.224E-03 -.230E-03 -.244E-05
   -.155E-05 0.753E+01 -.753E+01   0.574E-14 -.762E+01 0.762E+01   0.128E-05 0.115E+00 -.115E+00   -.326E-08 -.165E-03 0.154E-03
   -.236E-05 0.517E-15 -.240E-05   0.697E-14 0.516E-14 -.126E-13   0.995E-06 0.000E+00 0.152E-05   0.514E-06 -.776E-14 0.654E-06
   -.234E+01 0.539E-13 0.234E+01   0.231E+01 0.716E-14 -.231E+01   0.470E-01 0.000E+00 -.470E-01   0.220E-03 -.639E-14 -.221E-03
   -.753E+01 -.753E+01 -.183E-05   0.762E+01 0.762E+01 -.344E-14   -.115E+00 -.115E+00 0.128E-05   0.153E-03 0.166E-03 -.325E-08
   0.508E-05 -.234E+01 0.234E+01   -.231E-13 0.231E+01 -.231E+01   -.162E-05 0.470E-01 -.470E-01   -.244E-05 0.230E-03 -.225E-03
   -.414E-05 0.101E-14 -.414E-05   -.189E-14 0.167E-14 0.705E-14   0.222E-05 0.000E+00 0.222E-05   0.724E-06 -.989E-14 0.724E-06
   0.234E+01 -.844E-13 0.234E+01   -.231E+01 -.106E-13 -.231E+01   -.470E-01 0.000E+00 -.470E-01   -.220E-03 -.717E-14 -.221E-03
   0.753E+01 -.753E+01 0.113E-05   -.762E+01 0.762E+01 -.588E-14   0.115E+00 -.115E+00 -.178E-05   -.153E-03 0.166E-03 0.187E-05
   0.113E-05 -.753E+01 0.753E+01   -.610E-14 0.762E+01 -.762E+01   -.178E-05 -.115E+00 0.115E+00   0.187E-05 0.166E-03 -.154E-03
   -.311E-05 0.333E-15 -.352E-05   0.411E-14 -.483E-14 0.119E-13   0.398E-05 0.000E+00 0.170E-06   -.633E-06 0.794E-14 0.254E-05
   -.753E+01 -.666E-13 0.753E+01   0.762E+01 -.677E-14 -.762E+01   -.115E+00 0.000E+00 0.115E+00   0.156E-03 0.673E-14 -.159E-03
   -.753E+01 0.753E+01 -.155E-05   0.762E+01 -.762E+01 -.137E-13   -.115E+00 0.115E+00 0.128E-05   0.153E-03 -.166E-03 -.325E-08
   0.508E-05 0.234E+01 0.234E+01   -.260E-13 -.231E+01 -.231E+01   -.162E-05 -.470E-01 -.470E-01   -.244E-05 -.230E-03 -.225E-03
   0.753E+01 -.789E-13 0.753E+01   -.762E+01 -.144E-14 -.762E+01   0.115E+00 0.000E+00 0.115E+00   -.155E-03 0.741E-14 -.156E-03
   0.753E+01 0.753E+01 0.141E-05   -.762E+01 -.762E+01 0.500E-15   0.115E+00 0.115E+00 -.178E-05   -.153E-03 -.166E-03 0.187E-05
   0.113E-05 0.753E+01 0.753E+01   -.145E-14 -.762E+01 -.762E+01   -.178E-05 0.115E+00 0.115E+00   0.187E-05 -.166E-03 -.154E-03
 -----------------------------------------------------------------------------------------------
   -.137E-04 0.205E-13 -.137E-04   0.163E-13 -.977E-14 -.346E-13   0.187E-04 0.416E-16 0.187E-04   -.390E-06 -.879E-14 -.390E-06
 
 
 POSITION                                       TOTAL-FORCE (eV/Angst)
 -----------------------------------------------------------------------------------
      0.00000      0.00000      0.00000         0.000000      0.000000      0.000000
      2.01723      0.00000      2.01723         0.023425      0.000000      0.023425
      2.01723      2.01723      0.00000         0.023424      0.023424      0.000000
      0.00000      2.01723      2.01723         0.000000      0.023424      0.023424
      4.04353      0.00000      0.00000         0.000000      0.000000     -0.000001
      6.06982      0.00000      2.01723        -0.023424      0.000000      0.023424
      6.06982      2.01723      0.00000        -0.023423      0.023424      0.000001
      4.04353      2.04820      2.04820         0.000000     -0.025405     -0.025404
      0.00000      4.04353      0.00000         0.000000      0.000000      0.000000
      2.04820      4.04353      2.04820        -0.025404      0.000000     -0.025404
      2.01723      6.06982      0.00000         0.023424     -0.023424      0.000000
      0.00000      6.06982      2.01723         0.000000     -0.023424      0.023424
      4.04353      4.04353      0.00000        -0.000001      0.000000      0.000000
      6.03885      4.04353      2.04820         0.025405      0.000000     -0.025405
      6.06982      6.06982      0.00000        -0.023423     -0.023424      0.000001
      4.04353      6.03885      2.04820         0.000000      0.025405     -0.025404
      0.00000      0.00000      4.04353        -0.000001      0.000000      0.000000
      2.01723      0.00000      6.06982         0.023424      0.000000     -0.023424
      2.04820      2.04820      4.04353        -0.025404     -0.025405      0.000000
      0.00000      2.01723      6.06982         0.000001      0.023424     -0.023423
      4.04353      0.00000      4.04353        -0.000001      0.000000     -0.000001
      6.06982      0.00000      6.06982        -0.023424      0.000000     -0.023424
      6.03885      2.04820      4.04353         0.025404     -0.025404      0.000001
      4.04353      2.04820      6.03885         0.000001     -0.025404      0.025404
      0.00000      4.04353      4.04353         0.000000      0.000000     -0.000001
      2.04820      4.04353      6.03885        -0.025405      0.000000      0.025405
      2.04820      6.03885      4.04353        -0.025404      0.025405      0.000000
      0.00000      6.06982      6.06982         0.000001     -0.023424     -0.023423
      6.03885      4.04353      6.03885         0.025404      0.000000      0.025404
      6.03885      6.03885      4.04353         0.025404      0.025404      0.000001
      4.04353      6.03885      6.03885         0.000001      0.025404      0.025404
 -----------------------------------------------------------------------------------
    total drift:                                0.000005      0.000000      0.000005


--------------------------------------------------------------------------------------------------------


    POTLOK:  cpu time    0.16: real time    0.16


--------------------------------------------------------------------------------------------------------


  FORCES: max atom, RMS     0.035927    0.006453
  FORCE total and by dimension    0.035927    0.025404

 ----------------------------------------------------------------------------- 
|                                                                             |
|           W    W    AA    RRRRR   N    N  II  N    N   GGGG   !!!           |
|           W    W   A  A   R    R  NN   N  II  NN   N  G    G  !!!           |
|           W    W  A    A  R    R  N N  N  II  N N  N  G       !!!           |
|           W WW W  AAAAAA  RRRRR   N  N N  II  N  N N  G  GGG   !            |
|           WW  WW  A    A  R   R   N   NN  II  N   NN  G    G                |
|           W    W  A    A  R    R  N    N  II  N    N   GGGG   !!!           |
|                                                                             |
|      Your timestep is larger than 0.1 Angst.                                |
|      For finite differences this really does not make sense. I will         |
|      reset POTIM to 0.015. I recommend to use 0.01 to 0.02 for finite       |
|      differences.                                                           |
|                                                                             |
 ----------------------------------------------------------------------------- 

 Finite differences:
   Step               POTIM =   1.500000000000000E-002
   Degrees of freedom DOF   =            3
  LATTYP: Found a simple cubic cell.
 ALAT       =     8.0870520000
  
  Lattice vectors:
  
 A1 = (   8.0870520000,   0.0000000000,   0.0000000000)
 A2 = (   0.0000000000,   8.0870520000,   0.0000000000)
 A3 = (   0.0000000000,   0.0000000000,   8.0870520000)
 Subroutine PRICEL returns:
 Original cell was already a primitive cell.
 

Analysis of symmetry for initial positions (statically):

 Routine SETGRP: Setting up the symmetry group for a 
 simple cubic supercell.


 Subroutine GETGRP returns: Found  2 space group operations
 (whereof  2 operations were pure point group operations)
 out of a pool of 48 trial point group operations.


The static configuration has the point symmetry C_1h.

Analysis of symmetry for dynamics (positions and initial velocities):

 Subroutine DYNSYM returns: Found  2 space group operations
 (whereof  2 operations were pure point group operations)
 out of a pool of  2 trial space group operations
 (whereof  2 operations were pure point group operations)
 and found also     1 'primitive' translations


The dynamic configuration has the point symmetry C_1h.

Analysis of constrained symmetry for selective dynamics:

 Subroutine DYNSYM returns: Found  2 space group operations
 (whereof  2 operations were pure point group operations)
 out of a pool of  2 trial space group operations
 (whereof  2 operations were pure point group operations)
 and found also     1 'primitive' translations


The constrained configuration has the point symmetry C_1h.
 
 KPOINTS: Automatic kpoint scheme                 

Automatic generation of k-mesh.
 
 Subroutine IBZKPT returns following result:
 ===========================================
 
 Found      2 irreducible k-points:
 
 Following reciprocal coordinates:
            Coordinates               Weight
  0.250000  0.250000  0.250000      4.000000
 -0.250000  0.250000  0.250000      4.000000
 
 Following cartesian coordinates:
            Coordinates               Weight
  0.030914  0.030914  0.030914      4.000000
 -0.030914  0.030914  0.030914      4.000000
 
    WAVPRE:  cpu time    0.04: real time    0.04
    FEWALD:  cpu time    0.01: real time    0.01
    ORTHCH:  cpu time    0.10: real time    0.11
     LOOP+:  cpu time   31.87: real time   31.94
   RESPFUN:  cpu time    0.00: real time    0.00


----------------------------------------- Iteration    2(   1)  ---------------------------------------


    POTLOK:  cpu time    0.14: real time    0.15
    SETDIJ:  cpu time    0.01: real time    0.01
    EDDIAG:  cpu time    0.30: real time    0.30
  RMM-DIIS:  cpu time    1.20: real time    1.20
    ORTHCH:  cpu time    0.02: real time    0.02
       DOS:  cpu time    0.00: real time    0.00
    CHARGE:  cpu time    0.18: real time    0.18
    MIXING:  cpu time    0.00: real time    0.00
    --------------------------------------------
      LOOP:  cpu time    1.87: real time    1.87

 eigenvalue-minimisations  :   288
 total energy-change (2. order) : 0.7159837E-03  (-0.2366332E-02)
 number of electron   92.9999995 magnetization 
 augmentation part    -1.1857166 magnetization 

 Broyden mixing:
  rms(total) = 0.35617E-02    rms(broyden)= 0.35609E-02
  rms(prec ) = 0.81880E-02
  weight for this iteration     100.00

 Free energy of the ion-electron system (eV)
  ---------------------------------------------------
  alpha Z        PSCENC =        -6.10292983
  Ewald energy   TEWEN  =     -2232.21942273
  -1/2 Hartree   DENC   =       -19.13829853
  -exchange  EXHF       =         0.00000000
  -V(xc)+E(xc)   XCENC  =      -811.44230959
  PAW double counting   =      1106.77062554     -116.57157750
  entropy T*S    EENTRO =        -0.05051086
  eigenvalues    EBANDS =       304.48586512
  atomic energy  EATOM  =      1659.66634407
  ---------------------------------------------------
  free energy    TOTEN  =      -114.60221432 eV

  energy without entropy =     -114.55170346  energy(sigma->0) =     -114.58537737


--------------------------------------------------------------------------------------------------------




----------------------------------------- Iteration    2(   2)  ---------------------------------------


    POTLOK:  cpu time    0.14: real time    0.14
    SETDIJ:  cpu time    0.01: real time    0.01
    EDDIAG:  cpu time    0.30: real time    0.30
  RMM-DIIS:  cpu time    1.24: real time    1.24
    ORTHCH:  cpu time    0.02: real time    0.02
[...]
  -------------------------------------------------------------------------------------
  Total      -2.62148    -2.62203    -2.56577     0.00000     0.00000     0.03723
  in kB      -7.94121    -7.94288    -7.77244     0.00000     0.00000     0.11277
  external pressure =       -7.89 kB  Pullay stress =        0.00 kB


 VOLUME and BASIS-vectors are now :
 -----------------------------------------------------------------------------
  energy-cutoff  :      300.00
  volume of cell :      528.90
      direct lattice vectors                 reciprocal lattice vectors
     8.087052000  0.000000000  0.000000000     0.123654454  0.000000000  0.000000000
     0.000000000  8.087052000  0.000000000     0.000000000  0.123654454  0.000000000
     0.000000000  0.000000000  8.087052000     0.000000000  0.000000000  0.123654454

  length of vectors
     8.087052000  8.087052000  8.087052000     0.123654454  0.123654454  0.123654454


 FORCES acting on ions
    electron-ion (+dipol)            ewald-force                    non-local-force                 convergence-correction
 -----------------------------------------------------------------------------------------------
   0.589E-02 0.610E-14 -.408E-02   -.949E-02 -.805E-14 -.225E-02   0.249E-02 0.000E+00 0.511E-02   0.313E-04 0.135E-06 0.414E-04
   -.234E+01 -.438E-13 -.238E+01   0.231E+01 -.777E-15 0.235E+01   0.479E-01 0.000E+00 0.510E-01   0.427E-04 0.204E-07 -.672E-04
   -.234E+01 -.221E+01 0.700E-01   0.231E+01 0.220E+01 -.610E-01   0.470E-01 0.267E-01 -.192E-01   0.431E-04 0.952E-04 0.324E-03
   0.861E-03 -.234E+01 -.240E+01   -.134E-02 0.231E+01 0.239E+01   0.106E-02 0.489E-01 0.446E-01   0.847E-04 0.550E-04 -.701E-04
   -.977E-02 -.148E-12 -.963E-03   0.956E-02 -.561E-14 -.233E-02   -.166E-03 0.000E+00 0.125E-02   -.558E-04 0.112E-06 0.574E-04
   0.234E+01 0.607E-14 -.235E+01   -.231E+01 -.322E-14 0.233E+01   -.462E-01 0.000E+00 0.498E-01   -.653E-04 0.109E-07 -.136E-03
   0.234E+01 -.233E+01 0.513E-03   -.231E+01 0.230E+01 -.229E-02   -.461E-01 0.486E-01 0.102E-02   -.443E-04 0.152E-04 0.626E-04
   0.235E-02 -.753E+01 -.760E+01   -.464E-03 0.762E+01 0.770E+01   -.594E-03 -.115E+00 -.121E+00   -.815E-04 -.117E-04 -.131E-03
   0.123E+00 -.852E-14 0.691E-01   -.112E+00 -.289E-14 -.589E-01   -.166E-01 0.000E+00 -.195E-01   0.130E-03 -.171E-06 0.366E-03
   -.741E+01 0.613E-13 -.804E+01   0.751E+01 -.116E-13 0.804E+01   -.135E+00 0.000E+00 0.358E-01   0.828E-05 -.751E-07 -.659E-03
   -.234E+01 0.221E+01 0.700E-01   0.231E+01 -.220E+01 -.610E-01   0.470E-01 -.267E-01 -.192E-01   0.431E-04 -.951E-04 0.324E-03
   0.861E-03 0.234E+01 -.240E+01   -.134E-02 -.231E+01 0.239E+01   0.106E-02 -.489E-01 0.446E-01   0.847E-04 -.550E-04 -.701E-04
   -.130E+00 0.170E-12 0.758E-01   0.117E+00 -.111E-15 -.640E-01   0.204E-01 0.000E+00 -.224E-01   -.121E-03 -.152E-06 0.299E-03
   0.753E+01 0.511E-13 -.757E+01   -.762E+01 -.197E-13 0.766E+01   0.116E+00 0.000E+00 -.114E+00   0.344E-04 -.490E-07 -.162E-03
   0.234E+01 0.233E+01 0.513E-03   -.231E+01 -.230E+01 -.229E-02   -.461E-01 -.486E-01 0.102E-02   -.443E-04 -.151E-04 0.631E-04
   0.235E-02 0.753E+01 -.760E+01   -.464E-03 -.762E+01 0.770E+01   -.594E-03 0.115E+00 -.121E+00   -.815E-04 0.118E-04 -.131E-03
   -.572E-02 0.728E-15 -.221E-02   0.954E-02 0.516E-14 -.154E-02   -.290E-02 0.000E+00 0.251E-02   0.149E-03 0.112E-06 -.104E-03
   -.234E+01 0.492E-13 0.237E+01   0.231E+01 0.716E-14 -.234E+01   0.449E-01 0.000E+00 -.458E-01   0.474E-04 0.109E-07 0.600E-04
   -.754E+01 -.767E+01 0.783E-01   0.762E+01 0.774E+01 -.626E-01   -.112E+00 -.855E-01 -.270E-01   -.415E-04 -.101E-03 0.195E-03
   0.266E-02 -.234E+01 0.238E+01   0.250E-03 0.231E+01 -.235E+01   -.188E-02 0.491E-01 -.519E-01   0.110E-03 0.269E-04 -.115E-03
   0.974E-02 0.577E-15 -.413E-02   -.961E-02 0.167E-14 -.161E-02   0.167E-02 0.000E+00 0.406E-02   -.119E-03 0.108E-06 -.126E-03
   0.234E+01 -.832E-13 0.235E+01   -.231E+01 -.106E-13 -.233E+01   -.449E-01 0.000E+00 -.478E-01   -.272E-04 0.461E-06 0.158E-03
   0.753E+01 -.755E+01 -.209E-02   -.762E+01 0.763E+01 -.162E-02   0.114E+00 -.113E+00 0.288E-02   0.971E-05 0.190E-04 -.988E-04
   0.213E-02 -.753E+01 0.758E+01   -.814E-03 0.762E+01 -.767E+01   -.125E-02 -.116E+00 0.114E+00   -.777E-04 0.138E-04 -.364E-04
   -.129E+00 -.125E-14 0.718E-01   0.115E+00 -.483E-14 -.574E-01   0.207E-01 0.000E+00 -.229E-01   0.250E-04 -.152E-06 0.157E-03
   -.753E+01 -.616E-13 0.766E+01   0.762E+01 -.677E-14 -.775E+01   -.114E+00 0.000E+00 0.114E+00   -.153E-04 -.490E-07 -.281E-03
   -.754E+01 0.767E+01 0.783E-01   0.762E+01 -.774E+01 -.626E-01   -.112E+00 0.855E-01 -.270E-01   -.415E-04 0.101E-03 0.195E-03
   0.266E-02 0.234E+01 0.238E+01   0.250E-03 -.231E+01 -.235E+01   -.188E-02 -.491E-01 -.519E-01   0.111E-03 -.269E-04 -.115E-03
   0.753E+01 -.730E-13 0.756E+01   -.762E+01 -.144E-14 -.765E+01   0.114E+00 0.000E+00 0.116E+00   -.637E-04 -.465E-06 0.128E-03
   0.753E+01 0.755E+01 -.209E-02   -.762E+01 -.763E+01 -.162E-02   0.114E+00 0.113E+00 0.288E-02   0.970E-05 -.190E-04 -.993E-04
   0.213E-02 0.753E+01 0.758E+01   -.814E-03 -.762E+01 -.767E+01   -.125E-02 0.116E+00 0.114E+00   -.782E-04 -.138E-04 -.364E-04
 -----------------------------------------------------------------------------------------------
   -.870E-02 0.329E-13 0.521E-02   0.163E-13 -.977E-14 0.187E-13   0.873E-02 -.416E-16 -.517E-02   0.606E-05 0.131E-06 -.614E-05
 
 
 POSITION                                       TOTAL-FORCE (eV/Angst)
 -----------------------------------------------------------------------------------
      0.00000      0.00000      0.00000        -0.001074      0.000000     -0.001184
      2.01723      0.00000      2.01723         0.021621      0.000000      0.027393
      2.01723      2.01723      0.00000         0.022419      0.015889     -0.009813
      0.00000      2.01723      2.01723         0.000667      0.022000      0.026986
      4.04353      0.00000      0.00000        -0.000428      0.000000     -0.001989
      6.06982      0.00000      2.01723        -0.023647      0.000000      0.024308
      6.06982      2.01723      0.00000        -0.022909      0.022181     -0.000690
      4.04353      2.04820      2.04820         0.001215     -0.025932     -0.021228
      0.00000      4.04353      0.00000        -0.005328      0.000000     -0.008963
      2.04820      4.04353      2.03320        -0.033025      0.000000      0.031139
      2.01723      6.06982      0.00000         0.022419     -0.015889     -0.009813
      0.00000      6.06982      2.01723         0.000667     -0.022000      0.026986
      4.04353      4.04353      0.00000         0.007226      0.000000     -0.010251
      6.03885      4.04353      2.04820         0.025744      0.000000     -0.022401
      6.06982      6.06982      0.00000        -0.022909     -0.022181     -0.000690
      4.04353      6.03885      2.04820         0.001215      0.025932     -0.021228
      0.00000      0.00000      4.04353         0.001073      0.000000     -0.001349
      2.01723      0.00000      6.06982         0.022549      0.000000     -0.023506
      2.04820      2.04820      4.04353        -0.025988     -0.015722     -0.011041
      0.00000      2.01723      6.06982         0.001146      0.022814     -0.022323
      4.04353      0.00000      4.04353         0.001672      0.000000     -0.001809
      6.06982      0.00000      6.06982        -0.022152      0.000000     -0.023213
      6.03885      2.04820      4.04353         0.023926     -0.025875     -0.000920
      4.04353      2.04820      6.03885        -0.000008     -0.023939      0.026240
      0.00000      4.04353      4.04353         0.006781      0.000000     -0.008346
      2.04820      4.04353      6.03885        -0.025741      0.000000      0.022400
      2.04820      6.03885      4.04353        -0.025988      0.015722     -0.011041
      0.00000      6.06982      6.06982         0.001146     -0.022814     -0.022323
      6.03885      4.04353      6.03885         0.023794      0.000000      0.023347
      6.03885      6.03885      4.04353         0.023926      0.025875     -0.000920
      4.04353      6.03885      6.03885        -0.000008      0.023939      0.026240
 -----------------------------------------------------------------------------------
    total drift:                                0.000028      0.000000      0.000033
 d Force = 0.7529463E-03[-0.934E-03, 0.244E-02]  d Energy = 0.7602035E-03-0.726E-05
 d Force =-0.2286877E+00[-0.241E+00,-0.216E+00]  d Ewald  =-0.2286922E+00 0.447E-05


--------------------------------------------------------------------------------------------------------


    POTLOK:  cpu time    0.16: real time    0.16


--------------------------------------------------------------------------------------------------------


  FORCES: max atom, RMS     0.045391    0.008152
  FORCE total and by dimension    0.045391    0.033025
 Finite differences progress:
  Degree of freedom:   3/  3
  Displacement:        2/  2
  Total:               6/  6
 
 SECOND DERIVATIVES (NOT SYMMETRIZED)
 ------------------------------------
              10X         10Y         10Z 
 10X    -3.754170    0.000000    0.523633
 10Y    -0.000286   -4.586486   -0.000286
 10Z     0.523152    0.000000   -3.749175
 
 
 Eigenvectors and eigenvalues of the dynamical matrix
 ----------------------------------------------------
 
 
   1 f  =    6.445457 THz    40.497999 2PiTHz  214.997287 cm-1    26.656276 meV
             X         Y         Z           dx          dy          dz
      0.000000  0.000000  0.000000            0           0           0  
      2.017234  0.000000  2.017234            0           0           0  
      2.017234  2.017234  0.000000            0           0           0  
      0.000000  2.017234  2.017234            0           0           0  
      4.043526  0.000000  0.000000            0           0           0  
      6.069818  0.000000  2.017234            0           0           0  
      6.069818  2.017234  0.000000            0           0           0  
      4.043526  2.048200  2.048200            0           0           0  
      0.000000  4.043526  0.000000            0           0           0  
      2.048200  4.043526  2.048200    -0.000106   -1.000000   -0.000105  
      2.017234  6.069818  0.000000            0           0           0  
      0.000000  6.069818  2.017234            0           0           0  
      4.043526  4.043526  0.000000            0           0           0  
      6.038852  4.043526  2.048200            0           0           0  
      6.069818  6.069818  0.000000            0           0           0  
      4.043526  6.038852  2.048200            0           0           0  
      0.000000  0.000000  4.043526            0           0           0  
      2.017234  0.000000  6.069818            0           0           0  
      2.048200  2.048200  4.043526            0           0           0  
      0.000000  2.017234  6.069818            0           0           0  
      4.043526  0.000000  4.043526            0           0           0  
      6.069818  0.000000  6.069818            0           0           0  
      6.038852  2.048200  4.043526            0           0           0  
      4.043526  2.048200  6.038852            0           0           0  
      0.000000  4.043526  4.043526            0           0           0  
      2.048200  4.043526  6.038852            0           0           0  
      2.048200  6.038852  4.043526            0           0           0  
      0.000000  6.069818  6.069818            0           0           0  
      6.038852  4.043526  6.038852            0           0           0  
      6.038852  6.038852  4.043526            0           0           0  
      4.043526  6.038852  6.038852            0           0           0  
 
   2 f  =    6.222793 THz    39.098959 2PiTHz  207.570012 cm-1    25.735411 meV
             X         Y         Z           dx          dy          dz
      0.000000  0.000000  0.000000            0           0           0  
      2.017234  0.000000  2.017234            0           0           0  
      2.017234  2.017234  0.000000            0           0           0  
      0.000000  2.017234  2.017234            0           0           0  
      4.043526  0.000000  0.000000            0           0           0  
      6.069818  0.000000  2.017234            0           0           0  
      6.069818  2.017234  0.000000            0           0           0  
      4.043526  2.048200  2.048200            0           0           0  
      0.000000  4.043526  0.000000            0           0           0  
      2.048200  4.043526  2.048200    -0.708792    0.000002    0.705418  
      2.017234  6.069818  0.000000            0           0           0  
      0.000000  6.069818  2.017234            0           0           0  
      4.043526  4.043526  0.000000            0           0           0  
      6.038852  4.043526  2.048200            0           0           0  
      6.069818  6.069818  0.000000            0           0           0  
      4.043526  6.038852  2.048200            0           0           0  
      0.000000  0.000000  4.043526            0           0           0  
      2.017234  0.000000  6.069818            0           0           0  
      2.048200  2.048200  4.043526            0           0           0  
      0.000000  2.017234  6.069818            0           0           0  
      4.043526  0.000000  4.043526            0           0           0  
      6.069818  0.000000  6.069818            0           0           0  
      6.038852  2.048200  4.043526            0           0           0  
      4.043526  2.048200  6.038852            0           0           0  
      0.000000  4.043526  4.043526            0           0           0  
      2.048200  4.043526  6.038852            0           0           0  
      2.048200  6.038852  4.043526            0           0           0  
      0.000000  6.069818  6.069818            0           0           0  
      6.038852  4.043526  6.038852            0           0           0  
      6.038852  6.038852  4.043526            0           0           0  
      4.043526  6.038852  6.038852            0           0           0  
 
   3 f  =    5.407529 THz    33.976506 2PiTHz  180.375742 cm-1    22.363750 meV
             X         Y         Z           dx          dy          dz
      0.000000  0.000000  0.000000            0           0           0  
      2.017234  0.000000  2.017234            0           0           0  
      2.017234  2.017234  0.000000            0           0           0  
      0.000000  2.017234  2.017234            0           0           0  
      4.043526  0.000000  0.000000            0           0           0  
      6.069818  0.000000  2.017234            0           0           0  
      6.069818  2.017234  0.000000            0           0           0  
      4.043526  2.048200  2.048200            0           0           0  
      0.000000  4.043526  0.000000            0           0           0  
      2.048200  4.043526  2.048200     0.705418   -0.000149    0.708792  
      2.017234  6.069818  0.000000            0           0           0  
      0.000000  6.069818  2.017234            0           0           0  
      4.043526  4.043526  0.000000            0           0           0  
      6.038852  4.043526  2.048200            0           0           0  
      6.069818  6.069818  0.000000            0           0           0  
      4.043526  6.038852  2.048200            0           0           0  
      0.000000  0.000000  4.043526            0           0           0  
      2.017234  0.000000  6.069818            0           0           0  
      2.048200  2.048200  4.043526            0           0           0  
      0.000000  2.017234  6.069818            0           0           0  
      4.043526  0.000000  4.043526            0           0           0  
      6.069818  0.000000  6.069818            0           0           0  
      6.038852  2.048200  4.043526            0           0           0  
      4.043526  2.048200  6.038852            0           0           0  
      0.000000  4.043526  4.043526            0           0           0  
      2.048200  4.043526  6.038852            0           0           0  
      2.048200  6.038852  4.043526            0           0           0  
      0.000000  6.069818  6.069818            0           0           0  
      6.038852  4.043526  6.038852            0           0           0  
      6.038852  6.038852  4.043526            0           0           0  
      4.043526  6.038852  6.038852            0           0           0  
 
 Finite differences POTIM=  1.500000000000000E-002
  LATTYP: Found a simple cubic cell.
 ALAT       =     8.0870520000
  
  Lattice vectors:
  
 A1 = (   8.0870520000,   0.0000000000,   0.0000000000)
 A2 = (   0.0000000000,   8.0870520000,   0.0000000000)
 A3 = (   0.0000000000,   0.0000000000,   8.0870520000)
 Subroutine PRICEL returns:
 Original cell was already a primitive cell.
 

Analysis of symmetry for initial positions (statically):

 Routine SETGRP: Setting up the symmetry group for a 
 simple cubic supercell.


 Subroutine GETGRP returns: Found 48 space group operations
 (whereof 48 operations were pure point group operations)
 out of a pool of 48 trial point group operations.


The static configuration has the point symmetry O_h .

Analysis of symmetry for dynamics (positions and initial velocities):

 Subroutine DYNSYM returns: Found 48 space group operations
 (whereof 48 operations were pure point group operations)
 out of a pool of 48 trial space group operations
 (whereof 48 operations were pure point group operations)
 and found also     1 'primitive' translations


The dynamic configuration has the point symmetry O_h .

Analysis of constrained symmetry for selective dynamics:

 Subroutine DYNSYM returns: Found  4 space group operations
 (whereof  4 operations were pure point group operations)
 out of a pool of 48 trial space group operations
 (whereof 48 operations were pure point group operations)
 and found also     1 'primitive' translations


The constrained configuration has the point symmetry C_2v.
 
 KPOINTS: Automatic kpoint scheme                 

Automatic generation of k-mesh.
 
 Subroutine IBZKPT returns following result:
 ===========================================
 
 Found      2 irreducible k-points:
 
 Following reciprocal coordinates:
            Coordinates               Weight
  0.250000  0.250000  0.250000      4.000000
 -0.250000  0.250000  0.250000      4.000000
 
 Following cartesian coordinates:
            Coordinates               Weight
  0.030914  0.030914  0.030914      4.000000
 -0.030914  0.030914  0.030914      4.000000
 
     LOOP+:  cpu time   10.90: real time   10.92
    4ORBIT:  cpu time    0.00: real time    0.00

 total amount of memory used by VASP on root node  59241. kBytes
========================================================================

   base      :    30000. kBytes
   nonl-proj :     3893. kBytes
   fftplans  :     2983. kBytes
   grid      :    21024. kBytes
   one-center:       95. kBytes
   wavefun   :     1246. kBytes
 
  
  
 General timing and accounting informations for this job:
 ========================================================
  
                  Total CPU time used (sec):      122.527
                            User time (sec):      122.382
                          System time (sec):        0.145
                         Elapsed time (sec):      123.013
  
                   Maximum memory used (kb):           0.
                   Average memory used (kb):           0.
  
                          Minor page faults:        24025
                          Major page faults:            0
                 Voluntary context switches:         3513
