   7   7   0   0
  0.2544720E+02  0.5626600E-09  0.5626600E-09  0.5626600E-09  0.5000000E-15
  1.000000000000000E-004
  CAR 
 unknown system                          
     11.22430418    -21.43427556  301      3.94499502      1.00000000
    -21.434  0.0000E+00  0.0000E+00  0.0000E+00  0.0000E+00
    -21.325  0.0000E+00  0.0000E+00  0.0000E+00  0.0000E+00
    -21.217  0.0000E+00  0.0000E+00  0.0000E+00  0.0000E+00
    -21.108 -0.1568E-28 -0.9872E-29 -0.1707E-29 -0.1075E-29
    -20.999 -0.1017E-24 -0.6579E-25 -0.1107E-25 -0.7164E-26
    -20.890 -0.3620E-21 -0.2410E-21 -0.3942E-22 -0.2625E-22
    -20.781 -0.7095E-18 -0.4863E-18 -0.7728E-19 -0.5297E-19
    -20.672 -0.7654E-15 -0.5400E-15 -0.8340E-16 -0.5883E-16
    -20.563 -0.4403E-12 -0.3200E-12 -0.4801E-13 -0.3489E-13
    -20.455 -0.1424E-09 -0.1064E-09 -0.1555E-10 -0.1162E-10
    -20.346 -0.2520E-07 -0.1938E-07 -0.2759E-08 -0.2122E-08
    -20.237 -0.2429E-05 -0.1923E-05 -0.2672E-06 -0.2114E-06
    -20.128 -0.1266E-03 -0.1032E-03 -0.1405E-04 -0.1144E-04
    -20.019 -0.3522E-02 -0.2958E-02 -0.3975E-03 -0.3335E-03
    -19.910 -0.5091E-01 -0.4418E-01 -0.5939E-02 -0.5142E-02
    -19.801 -0.3569E+00 -0.3223E+00 -0.4479E-01 -0.4023E-01
    -19.692 -0.9337E+00 -0.9067E+00 -0.1464E+00 -0.1389E+00
    -19.584  0.1186E+01  0.8642E+00 -0.1733E-01 -0.4485E-01
    -19.475  0.1066E+02  0.9807E+01  0.1143E+01  0.1023E+01
    -19.366  0.1947E+02  0.1912E+02  0.3263E+01  0.3104E+01
    -19.257  0.1418E+02  0.1492E+02  0.4806E+01  0.4728E+01
    -19.148  0.3264E+01  0.3944E+01  0.5161E+01  0.5157E+01
    -19.039 -0.8294E+00 -0.7195E+00  0.5071E+01  0.5079E+01
    -18.930 -0.5413E+00 -0.5912E+00  0.5012E+01  0.5014E+01
    -18.822 -0.1008E+00 -0.1201E+00  0.5001E+01  0.5001E+01
    -18.713 -0.8786E-02 -0.1128E-01  0.5000E+01  0.5000E+01
    -18.604 -0.3949E-03 -0.5437E-03  0.5000E+01  0.5000E+01
    -18.495 -0.9472E-05 -0.1397E-04  0.5000E+01  0.5000E+01
    -18.386 -0.1231E-06 -0.1942E-06  0.5000E+01  0.5000E+01
    -18.277 -0.8724E-09 -0.1472E-08  0.5000E+01  0.5000E+01
    -18.168 -0.3386E-11 -0.6111E-11  0.5000E+01  0.5000E+01
    -18.060 -0.8159E-14 -0.1224E-13  0.5000E+01  0.5000E+01
    -17.951  0.0000E+00  0.0000E+00  0.5000E+01  0.5000E+01
    -17.842  0.0000E+00  0.0000E+00  0.5000E+01  0.5000E+01
    -17.733  0.0000E+00  0.0000E+00  0.5000E+01  0.5000E+01
    -17.624  0.0000E+00  0.0000E+00  0.5000E+01  0.5000E+01
    -17.515  0.0000E+00  0.0000E+00  0.5000E+01  0.5000E+01
    -17.406  0.0000E+00  0.0000E+00  0.5000E+01  0.5000E+01
    -17.298  0.0000E+00  0.0000E+00  0.5000E+01  0.5000E+01
    -17.189  0.0000E+00  0.0000E+00  0.5000E+01  0.5000E+01
    -17.080  0.0000E+00  0.0000E+00  0.5000E+01  0.5000E+01
    -16.971  0.0000E+00  0.0000E+00  0.5000E+01  0.5000E+01
    -16.862  0.0000E+00  0.0000E+00  0.5000E+01  0.5000E+01
    -16.753  0.0000E+00  0.0000E+00  0.5000E+01  0.5000E+01
    -16.644  0.0000E+00  0.0000E+00  0.5000E+01  0.5000E+01
    -16.535  0.0000E+00  0.0000E+00  0.5000E+01  0.5000E+01
    -16.427  0.0000E+00  0.0000E+00  0.5000E+01  0.5000E+01
    -16.318  0.0000E+00  0.0000E+00  0.5000E+01  0.5000E+01
    -16.209  0.0000E+00  0.0000E+00  0.5000E+01  0.5000E+01
    -16.100  0.0000E+00  0.0000E+00  0.5000E+01  0.5000E+01
    -15.991  0.0000E+00  0.0000E+00  0.5000E+01  0.5000E+01
    -15.882  0.0000E+00  0.0000E+00  0.5000E+01  0.5000E+01
    -15.773  0.0000E+00  0.0000E+00  0.5000E+01  0.5000E+01
    -15.665  0.0000E+00  0.0000E+00  0.5000E+01  0.5000E+01
    -15.556  0.0000E+00  0.0000E+00  0.5000E+01  0.5000E+01
    -15.447  0.0000E+00  0.0000E+00  0.5000E+01  0.5000E+01
    -15.338  0.0000E+00  0.0000E+00  0.5000E+01  0.5000E+01
    -15.229  0.0000E+00  0.0000E+00  0.5000E+01  0.5000E+01
    -15.120  0.0000E+00  0.0000E+00  0.5000E+01  0.5000E+01
    -15.011  0.0000E+00  0.0000E+00  0.5000E+01  0.5000E+01
    -14.903  0.0000E+00  0.0000E+00  0.5000E+01  0.5000E+01
    -14.794  0.0000E+00  0.0000E+00  0.5000E+01  0.5000E+01
    -14.685  0.0000E+00  0.0000E+00  0.5000E+01  0.5000E+01
    -14.576  0.0000E+00  0.0000E+00  0.5000E+01  0.5000E+01
    -14.467  0.0000E+00  0.0000E+00  0.5000E+01  0.5000E+01
    -14.358  0.0000E+00  0.0000E+00  0.5000E+01  0.5000E+01
    -14.249  0.0000E+00  0.0000E+00  0.5000E+01  0.5000E+01
    -14.141  0.0000E+00  0.0000E+00  0.5000E+01  0.5000E+01
    -14.032  0.0000E+00  0.0000E+00  0.5000E+01  0.5000E+01
    -13.923  0.0000E+00  0.0000E+00  0.5000E+01  0.5000E+01
    -13.814  0.0000E+00  0.0000E+00  0.5000E+01  0.5000E+01
    -13.705  0.0000E+00  0.0000E+00  0.5000E+01  0.5000E+01
    -13.596  0.0000E+00  0.0000E+00  0.5000E+01  0.5000E+01
    -13.487  0.0000E+00  0.0000E+00  0.5000E+01  0.5000E+01
    -13.378  0.0000E+00  0.0000E+00  0.5000E+01  0.5000E+01
    -13.270  0.0000E+00  0.0000E+00  0.5000E+01  0.5000E+01
    -13.161  0.0000E+00  0.0000E+00  0.5000E+01  0.5000E+01
    -13.052 -0.9744E-27 -0.8089E-27  0.5000E+01  0.5000E+01
    -12.943 -0.4671E-23 -0.3929E-23  0.5000E+01  0.5000E+01
    -12.834 -0.1237E-19 -0.1054E-19  0.5000E+01  0.5000E+01
    -12.725 -0.1810E-16 -0.1562E-16  0.5000E+01  0.5000E+01
    -12.616 -0.1425E-13 -0.1241E-13  0.5000E+01  0.5000E+01
    -12.508 -0.6320E-11 -0.5599E-11  0.5000E+01  0.5000E+01
    -12.399 -0.1548E-08 -0.1390E-08  0.5000E+01  0.5000E+01
    -12.290 -0.2092E-06 -0.1903E-06  0.5000E+01  0.5000E+01
    -12.181 -0.1557E-04 -0.1435E-04  0.5000E+01  0.5000E+01
    -12.072 -0.6364E-03 -0.5946E-03  0.5000E+01  0.5000E+01
    -11.963 -0.1419E-01 -0.1344E-01  0.4998E+01  0.4998E+01
    -11.854 -0.1691E+00 -0.1625E+00  0.4980E+01  0.4981E+01
    -11.746 -0.1012E+01 -0.9881E+00  0.4870E+01  0.4873E+01
    -11.637 -0.2293E+01 -0.2302E+01  0.4620E+01  0.4623E+01
    -11.528  0.3653E+01  0.3393E+01  0.5018E+01  0.4992E+01
    -11.419  0.2876E+02  0.2825E+02  0.8149E+01  0.8067E+01
    -11.310  0.5495E+02  0.5482E+02  0.1413E+02  0.1404E+02
    -11.201  0.4468E+02  0.4515E+02  0.1899E+02  0.1895E+02
    -11.092  0.1324E+02  0.1363E+02  0.2044E+02  0.2043E+02
    -10.984 -0.1708E+01 -0.1647E+01  0.2025E+02  0.2025E+02
    -10.875 -0.1846E+01 -0.1875E+01  0.2005E+02  0.2005E+02
    -10.766 -0.4058E+00 -0.4172E+00  0.2000E+02  0.2000E+02
    -10.657 -0.4032E-01 -0.4183E-01  0.2000E+02  0.2000E+02
    -10.548 -0.2040E-02 -0.2133E-02  0.2000E+02  0.2000E+02
    -10.439 -0.5470E-04 -0.5764E-04  0.2000E+02  0.2000E+02
    -10.330 -0.7918E-06 -0.8406E-06  0.2000E+02  0.2000E+02
    -10.221 -0.6244E-08 -0.6678E-08  0.2000E+02  0.2000E+02
    -10.113 -0.2697E-10 -0.2905E-10  0.2000E+02  0.2000E+02
    -10.004 -0.6323E-13 -0.7037E-13  0.2000E+02  0.2000E+02
     -9.895 -0.1967E-22 -0.3429E-23  0.2000E+02  0.2000E+02
     -9.786 -0.4379E-19 -0.8686E-20  0.2000E+02  0.2000E+02
     -9.677 -0.5361E-16 -0.1210E-16  0.2000E+02  0.2000E+02
     -9.568 -0.3478E-13 -0.8879E-14  0.2000E+02  0.2000E+02
     -9.459 -0.1282E-10 -0.3757E-11  0.2000E+02  0.2000E+02
     -9.351 -0.2565E-08 -0.8567E-09  0.2000E+02  0.2000E+02
     -9.242 -0.2788E-06 -0.1063E-06  0.2000E+02  0.2000E+02
     -9.133 -0.1634E-04 -0.7125E-05  0.2000E+02  0.2000E+02
     -9.024 -0.5093E-03 -0.2550E-03  0.2000E+02  0.2000E+02
     -8.915 -0.8220E-02 -0.4763E-02  0.2000E+02  0.2000E+02
     -8.806 -0.6443E-01 -0.4407E-01  0.1999E+02  0.1999E+02
     -8.697 -0.1959E+00 -0.1719E+00  0.1997E+02  0.1998E+02
     -8.589  0.1496E+00 -0.3159E-01  0.1999E+02  0.1997E+02
     -8.480  0.2045E+01  0.1510E+01  0.2021E+02  0.2014E+02
     -8.371  0.3982E+01  0.3754E+01  0.2064E+02  0.2055E+02
     -8.262  0.2950E+01  0.3418E+01  0.2096E+02  0.2092E+02
     -8.153  0.6486E+00  0.1064E+01  0.2103E+02  0.2103E+02
     -8.044 -0.1886E+00 -0.1327E+00  0.2101E+02  0.2102E+02
     -7.935 -0.1107E+00 -0.1430E+00  0.2100E+02  0.2100E+02
     -7.827 -0.1955E-01 -0.3033E-01  0.2100E+02  0.2100E+02
     -7.718 -0.8461E-02 -0.6852E-02  0.2100E+02  0.2100E+02
     -7.609 -0.5569E-01 -0.3818E-01  0.2099E+02  0.2100E+02
     -7.500 -0.1918E+00 -0.1632E+00  0.2097E+02  0.2098E+02
     -7.391 -0.4602E-01 -0.1615E+00  0.2097E+02  0.2096E+02
     -7.282  0.1470E+01  0.9943E+00  0.2113E+02  0.2107E+02
     -7.173  0.4455E+01  0.3885E+01  0.2161E+02  0.2149E+02
     -7.065  0.6486E+01  0.6429E+01  0.2232E+02  0.2219E+02
     -6.956  0.5114E+01  0.5615E+01  0.2288E+02  0.2280E+02
     -6.847  0.2126E+01  0.2519E+01  0.2311E+02  0.2308E+02
     -6.738  0.7366E+00  0.7968E+00  0.2319E+02  0.2316E+02
     -6.629  0.1119E+01  0.9137E+00  0.2331E+02  0.2326E+02
     -6.520  0.2541E+01  0.2206E+01  0.2359E+02  0.2350E+02
     -6.411  0.2813E+01  0.2977E+01  0.2389E+02  0.2383E+02
     -6.302  0.1182E+01  0.1643E+01  0.2402E+02  0.2401E+02
     -6.194 -0.1131E-01  0.1605E+00  0.2402E+02  0.2402E+02
     -6.085 -0.1338E+00 -0.1525E+00  0.2400E+02  0.2401E+02
     -5.976 -0.3521E-01 -0.5407E-01  0.2400E+02  0.2400E+02
     -5.867 -0.3864E-02 -0.7204E-02  0.2400E+02  0.2400E+02
     -5.758 -0.2091E-03 -0.4620E-03  0.2400E+02  0.2400E+02
     -5.649 -0.5884E-05 -0.1527E-04  0.2400E+02  0.2400E+02
     -5.540 -0.8821E-07 -0.2677E-06  0.2400E+02  0.2400E+02
     -5.432 -0.7131E-09 -0.2524E-08  0.2400E+02  0.2400E+02
     -5.323 -0.3130E-11 -0.1291E-10  0.2400E+02  0.2400E+02
     -5.214 -0.7649E-14 -0.3518E-13  0.2400E+02  0.2400E+02
     -5.105  0.0000E+00  0.0000E+00  0.2400E+02  0.2400E+02
     -4.996  0.0000E+00  0.0000E+00  0.2400E+02  0.2400E+02
     -4.887  0.0000E+00  0.0000E+00  0.2400E+02  0.2400E+02
     -4.778  0.0000E+00  0.0000E+00  0.2400E+02  0.2400E+02
     -4.670  0.0000E+00  0.0000E+00  0.2400E+02  0.2400E+02
     -4.561  0.0000E+00  0.0000E+00  0.2400E+02  0.2400E+02
     -4.452 -0.7240E-28 -0.2631E-28  0.2400E+02  0.2400E+02
     -4.343 -0.3868E-24 -0.1504E-24  0.2400E+02  0.2400E+02
     -4.234 -0.1137E-20 -0.4731E-21  0.2400E+02  0.2400E+02
     -4.125 -0.1836E-17 -0.8179E-18  0.2400E+02  0.2400E+02
     -4.016 -0.1628E-14 -0.7765E-15  0.2400E+02  0.2400E+02
     -3.908 -0.7656E-12 -0.3912E-12  0.2400E+02  0.2400E+02
     -3.799 -0.2021E-09 -0.1106E-09  0.2400E+02  0.2400E+02
     -3.690 -0.2901E-07 -0.1702E-07  0.2400E+02  0.2400E+02
     -3.581 -0.2250E-05 -0.1416E-05  0.2400E+02  0.2400E+02
     -3.472 -0.9327E-04 -0.6309E-04  0.2400E+02  0.2400E+02
     -3.363 -0.2026E-02 -0.1477E-02  0.2400E+02  0.2400E+02
     -3.254 -0.2210E-01 -0.1749E-01  0.2400E+02  0.2400E+02
     -3.145 -0.1071E+00 -0.9414E-01  0.2399E+02  0.2399E+02
     -3.037 -0.1054E+00 -0.1308E+00  0.2397E+02  0.2397E+02
     -2.928  0.7856E+00  0.6162E+00  0.2406E+02  0.2404E+02
     -2.819  0.2537E+01  0.2370E+01  0.2434E+02  0.2430E+02
     -2.710  0.2689E+01  0.2817E+01  0.2463E+02  0.2461E+02
     -2.601  0.1036E+01  0.1187E+01  0.2474E+02  0.2473E+02
     -2.492  0.1003E+01  0.7429E+00  0.2485E+02  0.2482E+02
     -2.383  0.3112E+01  0.2712E+01  0.2519E+02  0.2511E+02
     -2.275  0.4153E+01  0.4172E+01  0.2564E+02  0.2556E+02
     -2.166  0.2749E+01  0.3123E+01  0.2594E+02  0.2590E+02
     -2.057  0.7770E+00  0.1072E+01  0.2603E+02  0.2602E+02
     -1.948 -0.1154E+00 -0.4010E-01  0.2601E+02  0.2602E+02
     -1.839 -0.2466E+00 -0.2397E+00  0.2599E+02  0.2599E+02
     -1.730 -0.1683E+00 -0.2158E+00  0.2597E+02  0.2597E+02
     -1.621  0.9278E+00  0.6158E+00  0.2607E+02  0.2603E+02
     -1.513  0.3228E+01  0.2840E+01  0.2642E+02  0.2634E+02
     -1.404  0.3809E+01  0.3945E+01  0.2683E+02  0.2677E+02
     -1.295  0.1711E+01  0.2142E+01  0.2702E+02  0.2701E+02
     -1.186  0.4569E-01  0.2159E+00  0.2703E+02  0.2703E+02
     -1.077 -0.1796E+00 -0.1932E+00  0.2701E+02  0.2701E+02
     -0.968 -0.5226E-01 -0.7022E-01  0.2700E+02  0.2700E+02
     -0.859 -0.6206E-02 -0.9602E-02  0.2700E+02  0.2700E+02
     -0.751 -0.3629E-03 -0.6351E-03  0.2700E+02  0.2700E+02
     -0.642 -0.1643E-04 -0.2430E-04  0.2700E+02  0.2700E+02
     -0.533 -0.1817E-03 -0.9816E-04  0.2700E+02  0.2700E+02
     -0.424 -0.3176E-02 -0.1943E-02  0.2700E+02  0.2700E+02
     -0.315 -0.2729E-01 -0.1925E-01  0.2700E+02  0.2700E+02
     -0.206 -0.9672E-01 -0.8309E-01  0.2699E+02  0.2699E+02
     -0.097 -0.3932E-02 -0.5977E-01  0.2699E+02  0.2698E+02
      0.012  0.7364E+00  0.5456E+00  0.2707E+02  0.2704E+02
      0.120  0.1679E+01  0.1537E+01  0.2725E+02  0.2721E+02
      0.229  0.2484E+01  0.2266E+01  0.2752E+02  0.2746E+02
      0.338  0.4762E+01  0.4222E+01  0.2804E+02  0.2792E+02
      0.447  0.6449E+01  0.6398E+01  0.2874E+02  0.2861E+02
      0.556  0.4512E+01  0.4997E+01  0.2923E+02  0.2916E+02
      0.665  0.2771E+01  0.2805E+01  0.2953E+02  0.2946E+02
      0.774  0.2743E+01  0.2754E+01  0.2983E+02  0.2976E+02
      0.882  0.1596E+01  0.2009E+01  0.3000E+02  0.2998E+02
      0.991  0.1597E+00  0.4196E+00  0.3002E+02  0.3003E+02
      1.100 -0.2258E+00 -0.2083E+00  0.3000E+02  0.3000E+02
      1.209 -0.1262E+00 -0.1595E+00  0.2998E+02  0.2999E+02
      1.318  0.3773E+00  0.2681E+00  0.3002E+02  0.3001E+02
      1.427  0.1506E+01  0.1250E+01  0.3019E+02  0.3015E+02
      1.536  0.2885E+01  0.2500E+01  0.3050E+02  0.3042E+02
      1.644  0.3874E+01  0.3662E+01  0.3092E+02  0.3082E+02
      1.753  0.4025E+01  0.4221E+01  0.3136E+02  0.3128E+02
      1.862  0.3513E+01  0.3797E+01  0.3175E+02  0.3169E+02
      1.971  0.2782E+01  0.2720E+01  0.3205E+02  0.3199E+02
      2.080  0.2787E+01  0.2500E+01  0.3235E+02  0.3226E+02
      2.189  0.2479E+01  0.2674E+01  0.3262E+02  0.3255E+02
      2.298  0.1763E+01  0.2019E+01  0.3281E+02  0.3277E+02
      2.406  0.3111E+01  0.2787E+01  0.3315E+02  0.3308E+02
      2.515  0.4500E+01  0.4315E+01  0.3364E+02  0.3355E+02
      2.624  0.2959E+01  0.3373E+01  0.3396E+02  0.3391E+02
      2.733  0.6439E+00  0.1060E+01  0.3403E+02  0.3403E+02
      2.842 -0.1727E+00 -0.8317E-01  0.3402E+02  0.3402E+02
      2.951 -0.1149E+00 -0.1419E+00  0.3400E+02  0.3400E+02
      3.060 -0.2262E-01 -0.3630E-01  0.3400E+02  0.3400E+02
      3.169 -0.2148E-02 -0.4169E-02  0.3400E+02  0.3400E+02
      3.277 -0.1084E-02 -0.6043E-03  0.3400E+02  0.3400E+02
      3.386 -0.1186E-01 -0.5515E-02  0.3400E+02  0.3400E+02
      3.495 -0.6750E-01 -0.4077E-01  0.3399E+02  0.3399E+02
      3.604 -0.1307E+00 -0.1218E+00  0.3398E+02  0.3398E+02
      3.713  0.2527E+00  0.3551E-01  0.3400E+02  0.3399E+02
      3.822  0.1563E+01  0.9980E+00  0.3417E+02  0.3409E+02
      3.931  0.3198E+01  0.2543E+01  0.3452E+02  0.3437E+02
      4.039  0.4296E+01  0.4002E+01  0.3499E+02  0.3481E+02
      4.148  0.4544E+01  0.4929E+01  0.3549E+02  0.3534E+02
      4.257  0.3500E+01  0.4217E+01  0.3587E+02  0.3580E+02
      4.366  0.1421E+01  0.1924E+01  0.3602E+02  0.3601E+02
      4.475  0.3234E-01  0.1663E+00  0.3602E+02  0.3603E+02
      4.584 -0.1665E+00 -0.1920E+00  0.3601E+02  0.3601E+02
      4.693 -0.5187E-01 -0.7245E-01  0.3600E+02  0.3600E+02
      4.801 -0.1335E-01 -0.1526E-01  0.3600E+02  0.3600E+02
      4.910 -0.5369E-01 -0.4240E-01  0.3599E+02  0.3599E+02
      5.019 -0.1663E+00 -0.1520E+00  0.3598E+02  0.3598E+02
      5.128  0.5606E-01 -0.3066E-01  0.3598E+02  0.3598E+02
      5.237  0.1452E+01  0.1180E+01  0.3614E+02  0.3610E+02
      5.346  0.3410E+01  0.3155E+01  0.3651E+02  0.3645E+02
      5.455  0.4394E+01  0.4270E+01  0.3699E+02  0.3691E+02
      5.563  0.4591E+01  0.4509E+01  0.3749E+02  0.3740E+02
      5.672  0.4099E+01  0.4211E+01  0.3793E+02  0.3786E+02
      5.781  0.2445E+01  0.2784E+01  0.3820E+02  0.3816E+02
      5.890  0.1325E+01  0.1410E+01  0.3835E+02  0.3832E+02
      5.999  0.2130E+01  0.1981E+01  0.3858E+02  0.3853E+02
      6.108  0.2548E+01  0.2650E+01  0.3885E+02  0.3882E+02
      6.217  0.1330E+01  0.1562E+01  0.3900E+02  0.3899E+02
      6.326  0.1552E+00  0.2478E+00  0.3902E+02  0.3902E+02
      6.434 -0.1971E+00 -0.1825E+00  0.3899E+02  0.3900E+02
      6.543 -0.1890E+00 -0.2126E+00  0.3897E+02  0.3898E+02
      6.652  0.5268E+00  0.3012E+00  0.3903E+02  0.3901E+02
      6.761  0.2261E+01  0.1933E+01  0.3928E+02  0.3922E+02
      6.870  0.2985E+01  0.3031E+01  0.3960E+02  0.3955E+02
      6.979  0.1889E+01  0.2153E+01  0.3981E+02  0.3978E+02
      7.088  0.1050E+01  0.1156E+01  0.3992E+02  0.3991E+02
      7.196  0.6437E+00  0.7105E+00  0.3999E+02  0.3999E+02
      7.305  0.1542E+00  0.2117E+00  0.4001E+02  0.4001E+02
      7.414 -0.5006E-01 -0.4205E-01  0.4000E+02  0.4000E+02
      7.523 -0.3554E-01 -0.3971E-01  0.4000E+02  0.4000E+02
      7.632 -0.5091E-01 -0.3987E-01  0.3999E+02  0.4000E+02
      7.741 -0.2133E+00 -0.1742E+00  0.3997E+02  0.3998E+02
      7.850 -0.2527E+00 -0.2983E+00  0.3994E+02  0.3994E+02
      7.958  0.1375E+01  0.8959E+00  0.4009E+02  0.4004E+02
      8.067  0.5386E+01  0.4627E+01  0.4068E+02  0.4055E+02
      8.176  0.7393E+01  0.7404E+01  0.4148E+02  0.4135E+02
      8.285  0.4190E+01  0.4974E+01  0.4194E+02  0.4189E+02
      8.394  0.1058E+01  0.1281E+01  0.4206E+02  0.4203E+02
      8.503  0.2502E+01  0.1913E+01  0.4233E+02  0.4224E+02
      8.612  0.5337E+01  0.4988E+01  0.4291E+02  0.4278E+02
      8.720  0.5536E+01  0.5827E+01  0.4351E+02  0.4342E+02
      8.829  0.3458E+01  0.3954E+01  0.4389E+02  0.4385E+02
      8.938  0.9783E+00  0.1313E+01  0.4400E+02  0.4399E+02
      9.047  0.4328E+00  0.2850E+00  0.4404E+02  0.4402E+02
      9.156  0.2568E+01  0.2104E+01  0.4432E+02  0.4425E+02
      9.265  0.3999E+01  0.3980E+01  0.4476E+02  0.4469E+02
      9.374  0.2274E+01  0.2716E+01  0.4500E+02  0.4498E+02
      9.483  0.2448E+00  0.4883E+00  0.4503E+02  0.4503E+02
      9.591 -0.2032E+00 -0.2010E+00  0.4501E+02  0.4501E+02
      9.700 -0.7437E-01 -0.9708E-01  0.4500E+02  0.4500E+02
      9.809 -0.1009E-01 -0.1530E-01  0.4500E+02  0.4500E+02
      9.918 -0.6579E-03 -0.1133E-02  0.4500E+02  0.4500E+02
     10.027 -0.2210E-04 -0.4293E-04  0.4500E+02  0.4500E+02
     10.136 -0.3936E-06 -0.8596E-06  0.4500E+02  0.4500E+02
     10.245 -0.3773E-08 -0.9248E-08  0.4500E+02  0.4500E+02
     10.353 -0.1962E-10 -0.5395E-10  0.4500E+02  0.4500E+02
     10.462 -0.5558E-13 -0.1718E-12  0.4500E+02  0.4500E+02
     10.571  0.0000E+00  0.0000E+00  0.4500E+02  0.4500E+02
     10.680  0.0000E+00  0.0000E+00  0.4500E+02  0.4500E+02
     10.789  0.0000E+00  0.0000E+00  0.4500E+02  0.4500E+02
     10.898  0.0000E+00  0.0000E+00  0.4500E+02  0.4500E+02
     11.007  0.0000E+00  0.0000E+00  0.4500E+02  0.4500E+02
     11.115  0.0000E+00  0.0000E+00  0.4500E+02  0.4500E+02
     11.224  0.0000E+00  0.0000E+00  0.4500E+02  0.4500E+02
