       N       E                     dE             d eps       ncg     rms          rms(c)
DAV:   1     0.546145584031E+03    0.54615E+03   -0.23768E+04   386   0.177E+03
DAV:   2     0.608040969259E+02   -0.48534E+03   -0.46963E+03   360   0.480E+02
DAV:   3    -0.221145066836E+02   -0.82919E+02   -0.81709E+02   406   0.163E+02
DAV:   4    -0.264836754203E+02   -0.43692E+01   -0.43011E+01   424   0.424E+01
DAV:   5    -0.265792071693E+02   -0.95532E-01   -0.95442E-01   464   0.596E+00    0.127E+01
DAV:   6    -0.268632850491E+02   -0.28408E+00   -0.17767E+00   456   0.995E+00    0.486E+00
DAV:   7    -0.270324417286E+02   -0.16916E+00   -0.51158E-01   456   0.433E+00    0.158E+00
DAV:   8    -0.270401928784E+02   -0.77511E-02   -0.67574E-02   416   0.138E+00    0.748E-01
DAV:   9    -0.270431634183E+02   -0.29705E-02   -0.22363E-02   432   0.754E-01    0.300E-01
DAV:  10    -0.270442849978E+02   -0.11216E-02   -0.52932E-03   416   0.464E-01    0.939E-02
DAV:  11    -0.270446597699E+02   -0.37477E-03   -0.89887E-04   384   0.189E-01    0.559E-02
DAV:  12    -0.270448803131E+02   -0.22054E-03   -0.35503E-04   336   0.108E-01    0.349E-02
DAV:  13    -0.270450272260E+02   -0.14691E-03   -0.16361E-04   294   0.584E-02    0.262E-02
DAV:  14    -0.270451330081E+02   -0.10578E-03   -0.15840E-04   284   0.591E-02    0.191E-02
DAV:  15    -0.270451884871E+02   -0.55479E-04   -0.74102E-05   190   0.338E-02
   1 F= -.27045188E+02 E0= -.27039537E+02  d E =-.169555E-01  mag=     0.1438
