Processors received = 1
script running on host compute-0-0.local
PBS_NODEFILE
compute-0-0
 running on    1 nodes
 distr:  one band on    1 nodes,    1 groups
 vasp.5.2.2 15Apr09 complex 
 POSCAR found type information on POSCAR  Al
 POSCAR found :  1 types and    4 ions
 LDA part: xc-table for Ceperly-Alder, standard interpolation
 POSCAR, INCAR and KPOINTS ok, starting setup
 FFT: planning ...(           1 )
 reading WAVECAR
 entering main loop
       N       E                     dE             d eps       ncg     rms          rms(c)
DAV:   1     0.280349546925E+02    0.28035E+02   -0.41173E+03    20   0.683E+02
DAV:   2    -0.187757436292E+01   -0.29913E+02   -0.29536E+02    30   0.106E+02
DAV:   3    -0.221690025873E+01   -0.33933E+00   -0.32681E+00    24   0.111E+01
DAV:   4    -0.221862678727E+01   -0.17265E-02   -0.17259E-02    22   0.104E+00
DAV:   5    -0.221864026532E+01   -0.13478E-04   -0.13478E-04    20   0.843E-02    0.239E+00
DAV:   6    -0.210055144189E+01    0.11809E+00   -0.42476E-03    20   0.717E-01    0.149E+00
DAV:   7    -0.201653210236E+01    0.84019E-01   -0.14248E-02    20   0.103E+00    0.739E-02
DAV:   8    -0.201633900275E+01    0.19310E-03   -0.10828E-04    12   0.122E-01    0.232E-02
DAV:   9    -0.201631349068E+01    0.25512E-04   -0.18498E-05    10   0.404E-02
   1 F= -.20163135E+01 E0= -.19665323E+01  d E =-.201631E+01
 curvature:   0.00 expect dE= 0.000E+00 dE for cont linesearch  0.000E+00
 trial: gam= 0.00000 g(F)=  0.726E-63 g(S)=  0.255E+02 ort = 0.000E+00 (trialstep = 0.100E+01)
 search vector abs. value=  0.255E+02
 bond charge predicted
       N       E                     dE             d eps       ncg     rms          rms(c)
DAV:   1    -0.875462851465E+01   -0.67383E+01   -0.10081E+02    20   0.461E+01    0.503E+00
DAV:   2    -0.814173501595E+01    0.61289E+00   -0.80561E-01    20   0.531E+00    0.304E+00
DAV:   3    -0.780290428603E+01    0.33883E+00   -0.24773E-01    20   0.275E+00    0.264E-01
DAV:   4    -0.780305466208E+01   -0.15038E-03   -0.13753E-03    20   0.261E-01    0.138E-01
DAV:   5    -0.780350296551E+01   -0.44830E-03   -0.24238E-04    18   0.101E-01    0.131E-02
DAV:   6    -0.780350013502E+01    0.28305E-05   -0.48204E-06    10   0.148E-02
   2 F= -.78035001E+01 E0= -.77723959E+01  d E =-.578719E+01
 trial-energy change:   -5.787187  1 .order  -10.492943  -25.498116    4.512229
 step:   0.6304(harm=  0.8496)  dis= 0.00000  next Energy=    -8.874752 (dE=-0.686E+01)
 bond charge predicted
       N       E                     dE             d eps       ncg     rms          rms(c)
DAV:   1    -0.854948904073E+01   -0.74599E+00   -0.21378E+01    20   0.272E+01    0.228E+00
DAV:   2    -0.844395650754E+01    0.10553E+00   -0.12859E-01    20   0.275E+00    0.140E+00
DAV:   3    -0.835937657027E+01    0.84580E-01   -0.57697E-02    20   0.132E+00    0.529E-02
DAV:   4    -0.835931538194E+01    0.61188E-04   -0.21151E-04    18   0.119E-01
   3 F= -.83593154E+01 E0= -.83095342E+01  d E =-.634300E+01
 curvature:   0.48 expect dE= 0.177E-01 dE for cont linesearch  0.177E-01
 ZBRENT: interpolating
 opt :   0.6960  next Energy=    -8.391165 (dE=-0.637E+01)
 bond charge predicted
       N       E                     dE             d eps       ncg     rms          rms(c)
DAV:   1    -0.838607472938E+01   -0.26698E-01   -0.62564E-01    20   0.434E+00    0.390E-01
DAV:   2    -0.838253941019E+01    0.35353E-02   -0.26087E-03    18   0.387E-01    0.242E-01
DAV:   3    -0.838009382746E+01    0.24456E-02   -0.18382E-03    20   0.233E-01    0.970E-03
DAV:   4    -0.838009116647E+01    0.26610E-05   -0.52465E-06    10   0.222E-02
   4 F= -.83800912E+01 E0= -.83303100E+01  d E =-.636378E+01
 curvature:  -0.86 expect dE=-0.121E-02 dE for cont linesearch -0.121E-02
 ZBRENT: interpolating
 opt :   0.6853  next Energy=    -8.381107 (dE=-0.636E+01)
 bond charge predicted
       N       E                     dE             d eps       ncg     rms          rms(c)
DAV:   1    -0.838114550403E+01   -0.10517E-02   -0.17078E-02    20   0.723E-01    0.646E-02
DAV:   2    -0.838104780482E+01    0.97699E-04   -0.64246E-05    10   0.639E-02
   5 F= -.83810478E+01 E0= -.83312666E+01  d E =-.636473E+01
 curvature:  -0.72 expect dE=-0.549E-04 dE for cont linesearch -0.549E-04
 trial: gam= 0.00000 g(F)=  0.328E-64 g(S)=  0.764E-04 ort =-0.441E-01 (trialstep = 0.937E+00)
 search vector abs. value=  0.764E-04
 reached required accuracy - stopping structural energy minimisation
