  32  32   0   0
  0.1593310E+02  0.7988835E-09  0.7988835E-09  0.7988835E-09  0.5000000E-15
  1.000000000000000E-004
  CAR 
 unknown system                          
     12.22758103     -4.71325060  301      8.12799948      1.00000000
     -4.713  0.0000E+00  0.0000E+00
     -4.657  0.0000E+00  0.0000E+00
     -4.600  0.0000E+00  0.0000E+00
     -4.544  0.0000E+00  0.0000E+00
     -4.487  0.0000E+00  0.0000E+00
     -4.431  0.0000E+00  0.0000E+00
     -4.374  0.0000E+00  0.0000E+00
     -4.318 -0.4614E-28 -0.2606E-29
     -4.261 -0.3770E-26 -0.2155E-27
     -4.205 -0.2649E-24 -0.1518E-25
     -4.149 -0.1585E-22 -0.9100E-24
     -4.092 -0.8064E-21 -0.4645E-22
     -4.036 -0.3492E-19 -0.2018E-20
     -3.979 -0.1286E-17 -0.7462E-19
     -3.923 -0.4026E-16 -0.2348E-17
     -3.866 -0.1041E-14 -0.6111E-16
     -3.810 -0.2343E-13 -0.1384E-14
     -3.753 -0.4484E-12 -0.2670E-13
     -3.697 -0.7277E-11 -0.4376E-12
     -3.640 -0.1001E-09 -0.6089E-11
     -3.584 -0.1165E-08 -0.7190E-10
     -3.527 -0.1147E-07 -0.7199E-09
     -3.471 -0.9535E-07 -0.6104E-08
     -3.414 -0.6673E-06 -0.4379E-07
     -3.358 -0.3921E-05 -0.2652E-06
     -3.302 -0.1926E-04 -0.1353E-05
     -3.245 -0.7856E-04 -0.5789E-05
     -3.189 -0.2635E-03 -0.2067E-04
     -3.132 -0.7143E-03 -0.6101E-04
     -3.076 -0.1511E-02 -0.1464E-03
     -3.019 -0.2288E-02 -0.2756E-03
     -2.963 -0.1681E-02 -0.3705E-03
     -2.906  0.2650E-02 -0.2208E-03
     -2.850  0.1251E-01  0.4855E-03
     -2.793  0.2655E-01  0.1985E-02
     -2.737  0.3922E-01  0.4199E-02
     -2.680  0.4378E-01  0.6672E-02
     -2.624  0.3753E-01  0.8791E-02
     -2.567  0.2413E-01  0.1015E-01
     -2.511  0.1050E-01  0.1075E-01
     -2.454  0.1577E-02  0.1084E-01
     -2.398 -0.1970E-02  0.1072E-01
     -2.342 -0.2204E-02  0.1060E-01
     -2.285 -0.1364E-02  0.1052E-01
     -2.229 -0.6292E-03  0.1049E-01
     -2.172 -0.2853E-03  0.1047E-01
     -2.116 -0.3295E-03  0.1045E-01
     -2.059 -0.8916E-03  0.1040E-01
     -2.003 -0.2329E-02  0.1027E-01
     -1.946 -0.4794E-02  0.1000E-01
     -1.890 -0.6963E-02  0.9607E-02
     -1.833 -0.4416E-02  0.9357E-02
     -1.777  0.9998E-02  0.9922E-02
     -1.720  0.4113E-01  0.1224E-01
     -1.664  0.8373E-01  0.1697E-01
     -1.607  0.1202E+00  0.2376E-01
     -1.551  0.1309E+00  0.3116E-01
     -1.494  0.1094E+00  0.3733E-01
     -1.438  0.6825E-01  0.4119E-01
     -1.382  0.2825E-01  0.4278E-01
     -1.325  0.3103E-02  0.4296E-01
     -1.269 -0.6279E-02  0.4261E-01
     -1.212 -0.6429E-02  0.4224E-01
     -1.156 -0.3839E-02  0.4203E-01
     -1.099 -0.1712E-02  0.4193E-01
     -1.043 -0.6842E-03  0.4189E-01
     -0.986 -0.5306E-03  0.4186E-01
     -0.930 -0.1177E-02  0.4179E-01
     -0.873 -0.2859E-02  0.4163E-01
     -0.817 -0.5465E-02  0.4132E-01
     -0.760 -0.7022E-02  0.4093E-01
     -0.704 -0.2253E-02  0.4080E-01
     -0.647  0.1609E-01  0.4171E-01
     -0.591  0.5105E-01  0.4459E-01
     -0.535  0.9413E-01  0.4991E-01
     -0.478  0.1258E+00  0.5701E-01
     -0.422  0.1284E+00  0.6427E-01
     -0.365  0.1003E+00  0.6993E-01
     -0.309  0.5756E-01  0.7318E-01
     -0.252  0.2045E-01  0.7433E-01
     -0.196 -0.4793E-03  0.7431E-01
     -0.139 -0.6878E-02  0.7392E-01
     -0.083 -0.5864E-02  0.7359E-01
     -0.026 -0.3223E-02  0.7341E-01
      0.030 -0.1385E-02  0.7333E-01
      0.087 -0.6669E-03  0.7329E-01
      0.143 -0.9188E-03  0.7324E-01
      0.200 -0.2316E-02  0.7311E-01
      0.256 -0.5176E-02  0.7282E-01
      0.313 -0.8616E-02  0.7233E-01
      0.369 -0.8294E-02  0.7186E-01
      0.425  0.4498E-02  0.7211E-01
      0.482  0.3841E-01  0.7428E-01
      0.538  0.9195E-01  0.7948E-01
      0.595  0.1466E+00  0.8776E-01
      0.651  0.1747E+00  0.9762E-01
      0.708  0.1598E+00  0.1066E+00
      0.764  0.1107E+00  0.1129E+00
      0.821  0.5400E-01  0.1159E+00
      0.877  0.1285E-01  0.1167E+00
      0.934 -0.6041E-02  0.1163E+00
      0.990 -0.9265E-02  0.1158E+00
      1.047 -0.6339E-02  0.1154E+00
      1.103 -0.3098E-02  0.1153E+00
      1.160 -0.1332E-02  0.1152E+00
      1.216 -0.1054E-02  0.1151E+00
      1.273 -0.2307E-02  0.1150E+00
      1.329 -0.5611E-02  0.1147E+00
      1.385 -0.1080E-01  0.1141E+00
      1.442 -0.1406E-01  0.1133E+00
      1.498 -0.5004E-02  0.1130E+00
      1.555  0.3088E-01  0.1147E+00
      1.611  0.1001E+00  0.1204E+00
      1.668  0.1863E+00  0.1309E+00
      1.724  0.2508E+00  0.1451E+00
      1.781  0.2575E+00  0.1596E+00
      1.837  0.2025E+00  0.1711E+00
      1.894  0.1172E+00  0.1777E+00
      1.950  0.4234E-01  0.1801E+00
      2.007 -0.3357E-03  0.1800E+00
      2.063 -0.1368E-01  0.1793E+00
      2.120 -0.1185E-01  0.1786E+00
      2.176 -0.6556E-02  0.1782E+00
      2.232 -0.2789E-02  0.1781E+00
      2.289 -0.1153E-02  0.1780E+00
      2.345 -0.1069E-02  0.1779E+00
      2.402 -0.2268E-02  0.1778E+00
      2.458 -0.4646E-02  0.1776E+00
      2.515 -0.6908E-02  0.1772E+00
      2.571 -0.4810E-02  0.1769E+00
      2.628  0.8735E-02  0.1774E+00
      2.684  0.3893E-01  0.1796E+00
      2.741  0.8125E-01  0.1842E+00
      2.797  0.1187E+00  0.1909E+00
      2.854  0.1312E+00  0.1983E+00
      2.910  0.1114E+00  0.2046E+00
      2.967  0.7077E-01  0.2086E+00
      3.023  0.3021E-01  0.2103E+00
      3.080  0.4075E-02  0.2105E+00
      3.136 -0.6065E-02  0.2102E+00
      3.192 -0.6549E-02  0.2098E+00
      3.249 -0.4026E-02  0.2096E+00
      3.305 -0.1966E-02  0.2095E+00
      3.362 -0.1319E-02  0.2094E+00
      3.418 -0.2331E-02  0.2093E+00
      3.475 -0.5431E-02  0.2089E+00
      3.531 -0.1039E-01  0.2084E+00
      3.588 -0.1356E-01  0.2076E+00
      3.644 -0.5096E-02  0.2073E+00
      3.701  0.2895E-01  0.2089E+00
      3.757  0.9538E-01  0.2143E+00
      3.814  0.1796E+00  0.2245E+00
      3.870  0.2451E+00  0.2383E+00
      3.927  0.2561E+00  0.2528E+00
      3.983  0.2062E+00  0.2644E+00
      4.040  0.1237E+00  0.2714E+00
      4.096  0.4820E-01  0.2741E+00
      4.152  0.3015E-02  0.2743E+00
      4.209 -0.1266E-01  0.2736E+00
      4.265 -0.1203E-01  0.2729E+00
      4.322 -0.7043E-02  0.2725E+00
      4.378 -0.3355E-02  0.2723E+00
      4.435 -0.2258E-02  0.2722E+00
      4.491 -0.3936E-02  0.2720E+00
      4.548 -0.8802E-02  0.2715E+00
      4.604 -0.1595E-01  0.2706E+00
      4.661 -0.1902E-01  0.2695E+00
      4.717 -0.2764E-02  0.2693E+00
      4.774  0.5232E-01  0.2723E+00
      4.830  0.1529E+00  0.2809E+00
      4.887  0.2744E+00  0.2964E+00
      4.943  0.3637E+00  0.3170E+00
      4.999  0.3733E+00  0.3380E+00
      5.056  0.2979E+00  0.3549E+00
      5.112  0.1791E+00  0.3650E+00
      5.169  0.7151E-01  0.3690E+00
      5.225  0.6565E-02  0.3694E+00
      5.282 -0.1694E-01  0.3684E+00
      5.338 -0.1701E-01  0.3675E+00
      5.395 -0.1024E-01  0.3669E+00
      5.451 -0.4706E-02  0.3666E+00
      5.508 -0.2069E-02  0.3665E+00
      5.564 -0.1775E-02  0.3664E+00
      5.621 -0.3259E-02  0.3662E+00
      5.677 -0.5812E-02  0.3659E+00
      5.734 -0.6922E-02  0.3655E+00
      5.790 -0.8447E-03  0.3654E+00
      5.847  0.1958E-01  0.3666E+00
      5.903  0.5631E-01  0.3697E+00
      5.959  0.9915E-01  0.3753E+00
      6.016  0.1280E+00  0.3826E+00
      6.072  0.1264E+00  0.3897E+00
      6.129  0.9533E-01  0.3951E+00
      6.185  0.5228E-01  0.3980E+00
      6.242  0.1689E-01  0.3990E+00
      6.298 -0.1942E-02  0.3989E+00
      6.355 -0.7010E-02  0.3985E+00
      6.411 -0.5562E-02  0.3982E+00
      6.468 -0.3024E-02  0.3980E+00
      6.524 -0.1615E-02  0.3979E+00
      6.581 -0.1893E-02  0.3978E+00
      6.637 -0.4321E-02  0.3976E+00
      6.694 -0.9284E-02  0.3970E+00
      6.750 -0.1487E-01  0.3962E+00
      6.807 -0.1315E-01  0.3954E+00
      6.863  0.1085E-01  0.3961E+00
      6.919  0.7093E-01  0.4001E+00
      6.976  0.1630E+00  0.4093E+00
      7.032  0.2548E+00  0.4237E+00
      7.089  0.3003E+00  0.4406E+00
      7.145  0.2737E+00  0.4561E+00
      7.202  0.1908E+00  0.4668E+00
      7.258  0.9517E-01  0.4722E+00
      7.315  0.2498E-01  0.4736E+00
      7.371 -0.8352E-02  0.4732E+00
      7.428 -0.1513E-01  0.4723E+00
      7.484 -0.1090E-01  0.4717E+00
      7.541 -0.5612E-02  0.4714E+00
      7.597 -0.2683E-02  0.4712E+00
      7.654 -0.2431E-02  0.4711E+00
      7.710 -0.4820E-02  0.4708E+00
      7.766 -0.9645E-02  0.4703E+00
      7.823 -0.1413E-01  0.4695E+00
      7.879 -0.9617E-02  0.4689E+00
      7.936  0.1779E-01  0.4699E+00
      7.992  0.7757E-01  0.4743E+00
      8.049  0.1603E+00  0.4834E+00
      8.105  0.2346E+00  0.4966E+00
      8.162  0.2678E+00  0.5117E+00
      8.218  0.2529E+00  0.5260E+00
      8.275  0.2120E+00  0.5380E+00
      8.331  0.1714E+00  0.5477E+00
      8.388  0.1378E+00  0.5554E+00
      8.444  0.1034E+00  0.5613E+00
      8.501  0.6411E-01  0.5649E+00
      8.557  0.2758E-01  0.5665E+00
      8.614  0.3319E-02  0.5666E+00
      8.670 -0.6580E-02  0.5663E+00
      8.726 -0.7120E-02  0.5659E+00
      8.783 -0.4461E-02  0.5656E+00
      8.839 -0.2118E-02  0.5655E+00
      8.896 -0.1052E-02  0.5654E+00
      8.952 -0.1327E-02  0.5654E+00
      9.009 -0.3273E-02  0.5652E+00
      9.065 -0.7412E-02  0.5648E+00
      9.122 -0.1264E-01  0.5640E+00
      9.178 -0.1289E-01  0.5633E+00
      9.235  0.4540E-02  0.5636E+00
      9.291  0.5306E-01  0.5666E+00
      9.348  0.1320E+00  0.5740E+00
      9.404  0.2152E+00  0.5862E+00
      9.461  0.2611E+00  0.6009E+00
      9.517  0.2431E+00  0.6147E+00
      9.574  0.1719E+00  0.6244E+00
      9.630  0.8621E-01  0.6292E+00
      9.686  0.2193E-01  0.6305E+00
      9.743 -0.9506E-02  0.6299E+00
      9.799 -0.1785E-01  0.6289E+00
      9.856 -0.1777E-01  0.6279E+00
      9.912 -0.1631E-01  0.6270E+00
      9.969 -0.9100E-02  0.6265E+00
     10.025  0.1589E-01  0.6274E+00
     10.082  0.6755E-01  0.6312E+00
     10.138  0.1380E+00  0.6390E+00
     10.195  0.1988E+00  0.6502E+00
     10.251  0.2174E+00  0.6625E+00
     10.308  0.1828E+00  0.6728E+00
     10.364  0.1152E+00  0.6793E+00
     10.421  0.4862E-01  0.6821E+00
     10.477  0.6172E-02  0.6824E+00
     10.533 -0.1008E-01  0.6818E+00
     10.590 -0.1071E-01  0.6812E+00
     10.646 -0.6494E-02  0.6809E+00
     10.703 -0.2901E-02  0.6807E+00
     10.759 -0.1023E-02  0.6806E+00
     10.816 -0.2932E-03  0.6806E+00
     10.872 -0.6933E-04  0.6806E+00
     10.929 -0.1365E-04  0.6806E+00
     10.985 -0.2251E-05  0.6806E+00
     11.042 -0.3121E-06  0.6806E+00
     11.098 -0.3649E-07  0.6806E+00
     11.155 -0.3606E-08  0.6806E+00
     11.211 -0.3015E-09  0.6806E+00
     11.268 -0.2137E-10  0.6806E+00
     11.324 -0.1285E-11  0.6806E+00
     11.381 -0.6559E-13  0.6806E+00
     11.437 -0.2882E-14  0.6806E+00
     11.493 -0.8235E-16  0.6806E+00
     11.550  0.0000E+00  0.6806E+00
     11.606  0.0000E+00  0.6806E+00
     11.663  0.0000E+00  0.6806E+00
     11.719  0.0000E+00  0.6806E+00
     11.776  0.0000E+00  0.6806E+00
     11.832  0.0000E+00  0.6806E+00
     11.889  0.0000E+00  0.6806E+00
     11.945  0.0000E+00  0.6806E+00
     12.002  0.0000E+00  0.6806E+00
     12.058  0.0000E+00  0.6806E+00
     12.115  0.0000E+00  0.6806E+00
     12.171  0.0000E+00  0.6806E+00
     12.228  0.0000E+00  0.6806E+00
