   32   32  191    1
  0.1593310E+02  0.7988835E-09  0.7988835E-09  0.7988835E-09  0.5000000E-15
  1.000000000000000E-004
  CAR 
 unknown system                          
   96    1   65
 
  0.2500000E+00  0.2500000E+00  0.2500000E+00  0.1000000E+01
   1       -2.713251
   2       -1.589179
   3       -1.589179
   4       -1.589179
   5       -0.473693
   6       -0.473693
   7       -0.473693
   8        0.631823
   9        0.631823
  10        0.631823
  11        0.633245
  12        1.729986
  13        1.729986
  14        1.729986
  15        1.729986
  16        1.729986
  17        1.729986
  18        2.818669
  19        2.818669
  20        2.818669
  21        3.862390
  22        3.862390
  23        3.862390
  24        3.897118
  25        3.897118
  26        3.897118
  27        4.928673
  28        4.928673
  29        4.928673
  30        4.928673
  31        4.928673
  32        4.928673
  33        4.991391
  34        4.991391
  35        4.991391
  36        6.013252
  37        6.013252
  38        6.013252
  39        7.060235
  40        7.060235
  41        7.060235
  42        7.060235
  43        7.060235
  44        7.060235
  45        7.122533
  46        8.123883
  47        8.123883
  48        8.123883
  49        8.123883
  50        8.123883
  51        8.123883
  52        8.360678
  53        8.360678
  54        8.360678
  55        9.445247
  56        9.445247
  57        9.445247
  58        9.445247
  59        9.445248
  60        9.445249
  61       10.200995
  62       10.203920
  63       10.213915
  64       10.223631
  65       10.227581
