 vasp.5.2.2 15Apr09 complex 
 executed on             LinuxIFC date 2014.04.24  09:28:53
 running on    1 nodes
 distr:  one band on    1 nodes,    1 groups


--------------------------------------------------------------------------------------------------------


 INCAR:
 POTCAR:   PAW_PBE Al 04Jan2001                   
 POTCAR:   PAW_PBE Al 04Jan2001                   
   VRHFIN =Al: s2p1                                                             
   LEXCH  = PE                                                                  
   EATOM  =    53.5387 eV,    3.9350 Ry                                         
                                                                                
   TITEL  = PAW_PBE Al 04Jan2001                                                
   LULTRA =        F    use ultrasoft PP ?                                      
   IUNSCR =        1    unscreen: 0-lin 1-nonlin 2-no                           
   RPACOR =    1.500    partial core radius                                     
   POMASS =   26.982; ZVAL   =    3.000    mass and valenz                      
   RCORE  =    1.900    outmost cutoff radius                                   
   RWIGS  =    2.650; RWIGS  =    1.402    wigner-seitz radius (au A)           
   ENMAX  =  240.300; ENMIN  =  180.225 eV                                      
   ICORE  =        2    local potential                                         
   LCOR   =        T    correct aug charges                                     
   LPAW   =        T    paw PP                                                  
   EAUG   =  291.052                                                            
   DEXC   =    -.041                                                            
   RMAX   =    2.974    core radius for proj-oper                               
   RAUG   =    1.300    factor for augmentation sphere                          
   RDEP   =    1.966    radius for radial grids                                 
   QCUT   =   -4.203; QGAM   =    8.405    optimization parameters              
                                                                                
   Description                                                                  
     l     E      TYP  RCUT    TYP  RCUT                                        
     0   .000     23  1.900                                                     
     0   .000     23  1.900                                                     
     1   .000     23  1.900                                                     
     1  1.000     23  1.900                                                     
     2   .000      7  1.900                                                     
  local pseudopotential read in
  partial core-charges read in
  atomic valenz-charges read in
  non local Contribution for L=           0  read in
    real space projection operators read in
  non local Contribution for L=           0  read in
    real space projection operators read in
  non local Contribution for L=           1  read in
    real space projection operators read in
  non local Contribution for L=           1  read in
    real space projection operators read in
    PAW grid and wavefunctions read in
 
   number of l-projection  operators is LMAX  =           4
   number of lm-projection operators is LMMAX =           8
 

 ----------------------------------------------------------------------------- 
|                                                                             |
|  ADVICE TO THIS USER RUNNING 'VASP/VAMP'   (HEAR YOUR MASTER'S VOICE ...):  |
|                                                                             |
|      You have a (more or less) 'large supercell' and for larger cells       |
|      it might be more efficient to use real space projection operators      |
|      So try LREAL= Auto  in the INCAR   file.                               |
|      Mind: If you want to do a very accurate calculations keep the          |
|      reciprocal projection scheme          (i.e. LREAL=.FALSE.)             |
|                                                                             |
 ----------------------------------------------------------------------------- 

 PAW_PBE Al 04Jan2001                   :
 energy of atom  1       EATOM=  -53.5387
 kinetic energy error for atom=    0.0011 (will be added to EATOM!!)
 
 
 POSCAR: Al32                                    
  positions in direct lattice
  velocities in cartesian coordinates
 exchange correlation table for  LEXCH =        8
   RHO(1)=    0.500       N(1)  =     2000
   RHO(2)=  100.500       N(2)  =     4000

 VTST: version 2.03d, (02/18/09)

 CHAIN: initializing optimizer
 
 OPT: Using VASP Conjugate-Gradient optimizer
 CHAIN: Read ICHAIN            0
 


--------------------------------------------------------------------------------------------------------


 ion  position               nearest neighbor table
   1  0.000  0.000  0.000-   2 2.82   3 2.82   4 2.82   6 2.82   7 2.82  11 2.82  12 2.82  15 2.82
                            18 2.82  20 2.82  22 2.82  28 2.82
   2  0.250  0.000  0.250-   1 2.82   3 2.82   4 2.82   5 2.82   8 2.82  11 2.82  12 2.82  16 2.82
                            17 2.82  19 2.82  21 2.82  27 2.82
   3  0.250  0.250  0.000-   1 2.82   2 2.82   4 2.82   5 2.82   8 2.82   9 2.82  10 2.82  13 2.82
                            18 2.82  20 2.82  24 2.82  26 2.82
   4  0.000  0.250  0.250-   1 2.82   2 2.82   3 2.82   6 2.82   7 2.82   9 2.82  10 2.82  14 2.82
                            17 2.82  19 2.82  23 2.82  25 2.82
   5  0.500  0.000  0.000-   2 2.82   3 2.82   6 2.82   7 2.82   8 2.82  11 2.82  15 2.82  16 2.82
                            18 2.82  22 2.82  24 2.82  32 2.82
   6  0.750  0.000  0.250-   1 2.82   4 2.82   5 2.82   7 2.82   8 2.82  12 2.82  15 2.82  16 2.82
                            17 2.82  21 2.82  23 2.82  31 2.82
   7  0.750  0.250  0.000-   1 2.82   4 2.82   5 2.82   6 2.82   8 2.82   9 2.82  13 2.82  14 2.82
                            20 2.82  22 2.82  24 2.82  30 2.82
   8  0.500  0.250  0.250-   2 2.82   3 2.82   5 2.82   6 2.82   7 2.82  10 2.82  13 2.82  14 2.82
                            19 2.82  21 2.82  23 2.82  29 2.82
   9  0.000  0.500  0.000-   3 2.82   4 2.82   7 2.82  10 2.82  11 2.82  12 2.82  14 2.82  15 2.82
                            20 2.82  26 2.82  28 2.82  30 2.82
  10  0.250  0.500  0.250-   3 2.82   4 2.82   8 2.82   9 2.82  11 2.82  12 2.82  13 2.82  16 2.82
                            19 2.82  25 2.82  27 2.82  29 2.82
  11  0.250  0.750  0.000-   1 2.82   2 2.82   5 2.82   9 2.82  10 2.82  12 2.82  13 2.82  16 2.82
                            18 2.82  26 2.82  28 2.82  32 2.82
  12  0.000  0.750  0.250-   1 2.82   2 2.82   6 2.82   9 2.82  10 2.82  11 2.82  14 2.82  15 2.82
                            17 2.82  25 2.82  27 2.82  31 2.82
  13  0.500  0.500  0.000-   3 2.82   7 2.82   8 2.82  10 2.82  11 2.82  14 2.82  15 2.82  16 2.82
                            24 2.82  26 2.82  30 2.82  32 2.82
  14  0.750  0.500  0.250-   4 2.82   7 2.82   8 2.82   9 2.82  12 2.82  13 2.82  15 2.82  16 2.82
                            23 2.82  25 2.82  29 2.82  31 2.82
  15  0.750  0.750  0.000-   1 2.82   5 2.82   6 2.82   9 2.82  12 2.82  13 2.82  14 2.82  16 2.82
                            22 2.82  28 2.82  30 2.82  32 2.82
  16  0.500  0.750  0.250-   2 2.82   5 2.82   6 2.82  10 2.82  11 2.82  13 2.82  14 2.82  15 2.82
                            21 2.82  27 2.82  29 2.82  31 2.82
  17  0.000  0.000  0.500-   2 2.82   4 2.82   6 2.82  12 2.82  18 2.82  19 2.82  20 2.82  22 2.82
                            23 2.82  27 2.82  28 2.82  31 2.82
  18  0.250  0.000  0.750-   1 2.82   3 2.82   5 2.82  11 2.82  17 2.82  19 2.82  20 2.82  21 2.82
                            24 2.82  27 2.82  28 2.82  32 2.82
  19  0.250  0.250  0.500-   2 2.82   4 2.82   8 2.82  10 2.82  17 2.82  18 2.82  20 2.82  21 2.82
                            24 2.82  25 2.82  26 2.82  29 2.82
  20  0.000  0.250  0.750-   1 2.82   3 2.82   7 2.82   9 2.82  17 2.82  18 2.82  19 2.82  22 2.82
                            23 2.82  25 2.82  26 2.82  30 2.82
  21  0.500  0.000  0.500-   2 2.82   6 2.82   8 2.82  16 2.82  18 2.82  19 2.82  22 2.82  23 2.82
                            24 2.82  27 2.82  31 2.82  32 2.82
  22  0.750  0.000  0.750-   1 2.82   5 2.82   7 2.82  15 2.82  17 2.82  20 2.82  21 2.82  23 2.82
                            24 2.82  28 2.82  31 2.82  32 2.82
  23  0.750  0.250  0.500-   4 2.82   6 2.82   8 2.82  14 2.82  17 2.82  20 2.82  21 2.82  22 2.82
                            24 2.82  25 2.82  29 2.82  30 2.82
  24  0.500  0.250  0.750-   3 2.82   5 2.82   7 2.82  13 2.82  18 2.82  19 2.82  21 2.82  22 2.82
                            23 2.82  26 2.82  29 2.82  30 2.82
  25  0.000  0.500  0.500-   4 2.82  10 2.82  12 2.82  14 2.82  19 2.82  20 2.82  23 2.82  26 2.82
                            27 2.82  28 2.82  30 2.82  31 2.82
  26  0.250  0.500  0.750-   3 2.82   9 2.82  11 2.82  13 2.82  19 2.82  20 2.82  24 2.82  25 2.82
                            27 2.82  28 2.82  29 2.82  32 2.82
  27  0.250  0.750  0.500-   2 2.82  10 2.82  12 2.82  16 2.82  17 2.82  18 2.82  21 2.82  25 2.82
                            26 2.82  28 2.82  29 2.82  32 2.82
  28  0.000  0.750  0.750-   1 2.82   9 2.82  11 2.82  15 2.82  17 2.82  18 2.82  22 2.82  25 2.82
                            26 2.82  27 2.82  30 2.82  31 2.82
  29  0.500  0.500  0.500-   8 2.82  10 2.82  14 2.82  16 2.82  19 2.82  23 2.82  24 2.82  26 2.82
                            27 2.82  30 2.82  31 2.82  32 2.82
  30  0.750  0.500  0.750-   7 2.82   9 2.82  13 2.82  15 2.82  20 2.82  23 2.82  24 2.82  25 2.82
                            28 2.82  29 2.82  31 2.82  32 2.82
  31  0.750  0.750  0.500-   6 2.82  12 2.82  14 2.82  16 2.82  17 2.82  21 2.82  22 2.82  25 2.82
                            28 2.82  29 2.82  30 2.82  32 2.82
  32  0.500  0.750  0.750-   5 2.82  11 2.82  13 2.82  15 2.82  18 2.82  21 2.82  22 2.82  26 2.82
                            27 2.82  29 2.82  30 2.82  31 2.82
 
  LATTYP: Found a simple cubic cell.
 ALAT       =     7.9888350000
  
  Lattice vectors:
  
 A1 = (   7.9888350000,   0.0000000000,   0.0000000000)
 A2 = (   0.0000000000,   7.9888350000,   0.0000000000)
 A3 = (   0.0000000000,   0.0000000000,   7.9888350000)
 Subroutine PRICEL returns following result:
 
  LATTYP: Found a face centered cubic cell.
 ALAT       =     3.9944175000
  
  Lattice vectors:
  
 A1 = (   1.9972087500,   1.9972087500,   0.0000000000)
 A2 = (   1.9972087500,   0.0000000000,  -1.9972087500)
 A3 = (   0.0000000000,   1.9972087500,  -1.9972087500)
 
  32 primitive cells build up your supercell.
 

Analysis of symmetry for initial positions (statically):

 Routine SETGRP: Setting up the symmetry group for a 
 simple cubic supercell.


 Subroutine GETGRP returns: Found 48 space group operations
 (whereof 48 operations were pure point group operations)
 out of a pool of 48 trial point group operations.


The static configuration has the point symmetry O_h .

Analysis of symmetry for dynamics (positions and initial velocities):

 Subroutine DYNSYM returns: Found 48 space group operations
 (whereof 48 operations were pure point group operations)
 out of a pool of 48 trial space group operations
 (whereof 48 operations were pure point group operations)
 and found also    32 'primitive' translations


The dynamic configuration has the point symmetry O_h .
 
 
 KPOINTS: Automatic kpoint scheme                 

Automatic generation of k-mesh.
 
 Subroutine IBZKPT returns following result:
 ===========================================
 
 Found      1 irreducible k-points:
 
 Following reciprocal coordinates:
            Coordinates               Weight
  0.250000  0.250000  0.250000      8.000000
 
 Following cartesian coordinates:
            Coordinates               Weight
  0.031294  0.031294  0.031294      8.000000
 


--------------------------------------------------------------------------------------------------------




 Dimension of arrays:
   k-points           NKPTS =      1   k-points in BZ     NKDIM =      1   number of bands    NBANDS=     65
   number of dos      NEDOS =    301   number of ions     NIONS =     32
   non local maximal  LDIM  =      4   non local SUM 2l+1 LMDIM =      8
   total plane-waves  NPLWV = 110592
   max r-space proj   IRMAX =      1   max aug-charges    IRDMAX=   8640
   dimension x,y,z NGX =    48 NGY =   48 NGZ =   48
   dimension x,y,z NGXF=    96 NGYF=   96 NGZF=   96
   support grid    NGXF=    96 NGYF=   96 NGZF=   96
   ions per type =              32
 NGX,Y,Z   is equivalent  to a cutoff of   9.99,  9.99,  9.99 a.u.
 NGXF,Y,Z  is equivalent  to a cutoff of  19.98, 19.98, 19.98 a.u.


 I would recommend the setting:
   dimension x,y,z NGX =    45 NGY =   45 NGZ =   45
 SYSTEM =  unknown system                          
 POSCAR =  Al32                                    

 Startparameter for this run:
   NWRITE =      2    write-flag & timer
   PREC   = accura    medium, high low
   ISTART =      0    job   : 0-new  1-cont  2-samecut
   ICHARG =      2    charge: 1-file 2-atom 10-const
   ISPIN  =      1    spin polarized calculation?
   LNONCOLLINEAR =      F non collinear calculations
   LSORBIT =      F    spin-orbit coupling
   INIWAV =      1    electr: 0-lowe 1-rand  2-diag
   LASPH  =      F    aspherical Exc in radial PAW
   METAGGA=      F    non-selfconsistent MetaGGA calc.

 Electronic Relaxation 1
   ENCUT  =  300.0 eV  22.05 Ry    4.70 a.u.  11.28 11.28 11.28*2*pi/ulx,y,z
   ENINI  =  300.0     initial cutoff
   ENAUG  =  291.1 eV  augmentation charge cutoff
   NELM   =     60;   NELMIN=  2; NELMDL=-12     # of ELM steps 
   EDIFF  = 0.1E-03   stopping-criterion for ELM
   LREAL  =      F    real-space projection
   LCOMPAT=      F    compatible to vasp.4.4
   LREAL_COMPAT= F    compatible to vasp.4.5.1-3
   GGA_COMPAT  = T    GGA compatible to vasp.4.4-vasp.4.6
   LMAXPAW     = -100 max onsite density
   LMAXMIX     =    2 max onsite mixed and CHGCAR
   VOSKOWN=      0    Vosko Wilk Nusair interpolation
   ROPT   =    0.00000
 Ionic relaxation
   EDIFFG = 0.5E-01   stopping-criterion for IOM
   NSW    =    191    number of steps for IOM
   NBLOCK =      1;   KBLOCK =    191    inner block; outer block 
   IBRION =      2    ionic relax: 0-MD 1-quasi-New 2-CG
   NFREE  =      1    steps in history (QN), initial steepest desc. (CG)
   ISIF   =      3    stress and relaxation
   IWAVPR =     11    prediction:  0-non 1-charg 2-wave 3-comb
   ISYM   =      2    0-nonsym 1-usesym 2-fastsym
   LCORR  =      T    Harris-Foulkes like correction to forces

   POTIM  = 0.5000    time-step for ionic-motion
   TEIN   =    0.0    initial temperature
   TEBEG  =    0.0;   TEEND  =   0.0 temperature during run
   SMASS  =  -3.00    Nose mass-parameter (am)
   estimated Nose-frequenzy (Omega)   =  0.10E-29 period in steps =****** mass=  -0.146E-26a.u.
   NPACO  =    256;   APACO  = 16.0  distance and # of slots for P.C.
   PSTRESS=    0.0 pullay stress

  Mass of Ions in am
   POMASS =  26.98
  Ionic Valenz
   ZVAL   =   3.00
  Atomic Wigner-Seitz radii
   RWIGS  =  -1.00
   NELECT =      96.0000    total number of electrons
   NUPDOWN=      -1.0000    fix difference up-down

 DOS related values:
   EMIN   =  10.00;   EMAX   =-10.00  energy-range for DOS
   EFERMI =   0.00
   ISMEAR =     1;   SIGMA  =   0.20  broadening in eV -4-tet -1-fermi 0-gaus

 Electronic relaxation 2 (details)
   IALGO  =     48    algorithm
   LDIAG  =      T    sub-space diagonalisation
   IMIX   =      4    mixing-type and parameters
     AMIX     =   0.40;   BMIX     =  1.00
     AMIX_MAG =   1.60;   BMIX_MAG =  1.00
     AMIN     =   0.10
     WC   =   100.;   INIMIX=   1;  MIXPRE=   1

 Intra band minimization:
   WEIMIN = 0.0010     energy-eigenvalue tresh-hold
   EBREAK =  0.38E-06  absolut break condition
   DEPER  =   0.30     relativ break condition  

   TIME   =   0.40     timestep for ELM

  volume/ion in A,a.u.               =      15.93       107.52
  Fermi-wavevector in a.u.,A,eV,Ry     =   0.938315  1.773157 11.979035  0.880434
  Thomas-Fermi vector in A             =   2.065514
 
 Write flags
   LWAVE  =      F    write WAVECAR
   LCHARG =      F    write CHGCAR
   LVTOT  =      F    write LOCPOT, local potential
   LELF   =      F    write electronic localiz. function (ELF)
   LORBIT =      0    0 simple, 1 ext, 2 COOP (PROOUT)


 Dipole corrections
   LMONO  =      F    monopole corrections only (constant potential shift)
   LDIPOL =      F    correct potential (dipole corrections)
   IDIPOL =      0    1-x, 2-y, 3-z, 4-all directions 
   EPSILON=  1.0000000 bulk dielectric constant

 Exchange correlation treatment:
   GGA     =    --    GGA type
   LEXCH   =     8    internal setting for exchange type
   VOSKOWN=      0    Vosko Wilk Nusair interpolation
   LHFCALC =     F    Hartree Fock is set to
   LHFONE  =     F    Hartree Fock one center treatment
   AEXX    =    0.0000 exact exchange contribution

 Linear response parameters
   LEPSILON=     F    determine dielectric tensor
   LRPA    =     F    only Hartree local field effects (RPA)
   LNABLA  =     F    use nabla operator in PAW spheres
   LVEL    =     F    velocity operator in full k-point grid
   LINTERFAST=   F  fast interpolation
   KINTER  =     0    interpolate to denser k-point grid
   CSHIFT  =0.1000    complex shift for real part using Kramers Kronig
   OMEGAMAX=  -1.0    maximum frequency

 Orbital magnetization related:
   ORBITALMAG=     F  switch on orbital magnetization
   LCHIMAG   =     F  perturbation theory with respect to B field



--------------------------------------------------------------------------------------------------------


 conjugate gradient relaxation of ions
 charge density and potential will be updated during run
 non-spin polarized calculation
 RMM-DIIS sequential band-by-band
 perform sub-space diagonalisation
    before iterative eigenvector-optimisation
 modified Broyden-mixing scheme, WC =      100.0
 initial mixing is a Kerker type mixing with AMIX =  0.4000 and BMIX =      1.0000
 Hartree-type preconditioning will be used
 using additional bands           17
 reciprocal scheme for non local part
 use partial core corrections
 calculate Harris-corrections to forces 
   (improved forces if not selfconsistent)
 use gradient corrections 
 use of overlap-Matrix (Vanderbilt PP)
 Methfessel and Paxton  Order N= 1 SIGMA  =   0.20


--------------------------------------------------------------------------------------------------------


  energy-cutoff  :      300.00
  volume of cell :      509.86
      direct lattice vectors                 reciprocal lattice vectors
     7.988835000  0.000000000  0.000000000     0.125174697  0.000000000  0.000000000
     0.000000000  7.988835000  0.000000000     0.000000000  0.125174697  0.000000000
     0.000000000  0.000000000  7.988835000     0.000000000  0.000000000  0.125174697

  length of vectors
     7.988835000  7.988835000  7.988835000     0.125174697  0.125174697  0.125174697


 
 k-points in units of 2pi/SCALE and weight: Automatic kpoint scheme                 
   0.03129367  0.03129367  0.03129367       1.000
 
 k-points in reciprocal lattice and weights: Automatic kpoint scheme                 
   0.25000000  0.25000000  0.25000000       1.000
 
 position of ions in fractional coordinates (direct lattice) 
   0.00000000  0.00000000  0.00000000
   0.25000000  0.00000000  0.25000000
   0.25000000  0.25000000  0.00000000
   0.00000000  0.25000000  0.25000000
   0.50000000  0.00000000  0.00000000
   0.75000000  0.00000000  0.25000000
   0.75000000  0.25000000  0.00000000
   0.50000000  0.25000000  0.25000000
   0.00000000  0.50000000  0.00000000
   0.25000000  0.50000000  0.25000000
   0.25000000  0.75000000  0.00000000
   0.00000000  0.75000000  0.25000000
   0.50000000  0.50000000  0.00000000
   0.75000000  0.50000000  0.25000000
   0.75000000  0.75000000  0.00000000
   0.50000000  0.75000000  0.25000000
   0.00000000  0.00000000  0.50000000
   0.25000000  0.00000000  0.75000000
   0.25000000  0.25000000  0.50000000
   0.00000000  0.25000000  0.75000000
   0.50000000  0.00000000  0.50000000
   0.75000000  0.00000000  0.75000000
   0.75000000  0.25000000  0.50000000
   0.50000000  0.25000000  0.75000000
   0.00000000  0.50000000  0.50000000
   0.25000000  0.50000000  0.75000000
   0.25000000  0.75000000  0.50000000
   0.00000000  0.75000000  0.75000000
   0.50000000  0.50000000  0.50000000
   0.75000000  0.50000000  0.75000000
   0.75000000  0.75000000  0.50000000
   0.50000000  0.75000000  0.75000000
 
 position of ions in cartesian coordinates  (Angst):
   0.00000000  0.00000000  0.00000000
   1.99720875  0.00000000  1.99720875
   1.99720875  1.99720875  0.00000000
   0.00000000  1.99720875  1.99720875
   3.99441750  0.00000000  0.00000000
   5.99162625  0.00000000  1.99720875
   5.99162625  1.99720875  0.00000000
   3.99441750  1.99720875  1.99720875
   0.00000000  3.99441750  0.00000000
   1.99720875  3.99441750  1.99720875
   1.99720875  5.99162625  0.00000000
   0.00000000  5.99162625  1.99720875
   3.99441750  3.99441750  0.00000000
   5.99162625  3.99441750  1.99720875
   5.99162625  5.99162625  0.00000000
   3.99441750  5.99162625  1.99720875
   0.00000000  0.00000000  3.99441750
   1.99720875  0.00000000  5.99162625
   1.99720875  1.99720875  3.99441750
   0.00000000  1.99720875  5.99162625
   3.99441750  0.00000000  3.99441750
   5.99162625  0.00000000  5.99162625
   5.99162625  1.99720875  3.99441750
   3.99441750  1.99720875  5.99162625
   0.00000000  3.99441750  3.99441750
   1.99720875  3.99441750  5.99162625
   1.99720875  5.99162625  3.99441750
   0.00000000  5.99162625  5.99162625
   3.99441750  3.99441750  3.99441750
   5.99162625  3.99441750  5.99162625
   5.99162625  5.99162625  3.99441750
   3.99441750  5.99162625  5.99162625
 


--------------------------------------------------------------------------------------------------------


 k-point  1 :  0.25000.25000.2500  plane waves:    6007

 maximum and minimum number of plane-waves per node :    6007   6007

 maximum number of plane-waves:    6007
 maximal index in each direction: 
   IXMAX= 11   IYMAX= 11   IZMAX= 11
   IXMIN=-11   IYMIN=-11   IZMIN=-11

 NGX is ok and might be reduce to  46
 NGY is ok and might be reduce to  46
 NGZ is ok and might be reduce to  46

 serial   3D FFT for wavefunctions
 parallel 3D FFT for charge:
    minimum data exchange during FFTs selected (reduces bandwidth)


 total amount of memory used by VASP on root node 118324. kBytes
========================================================================

   base      :    30000. kBytes
   nonl-proj :     3460. kBytes
   fftplans  :    30736. kBytes
   grid      :    47517. kBytes
   one-center:       98. kBytes
   wavefun   :     6513. kBytes
 
 Broyden mixing: mesh for mixing (old mesh)
   NGX = 23   NGY = 23   NGZ = 23
  (NGX  = 96   NGY  = 96   NGZ  = 96)
  gives a total of  12167 points

 initial charge density was supplied:
 charge density of overlapping atoms calculated
 number of electron   96.0000000 magnetization 
 keeping initial charge density in first step


--------------------------------------------------------------------------------------------------------


 Maximum index for augmentation-charges         8217 (set IRDMAX)


--------------------------------------------------------------------------------------------------------


 First call to EWALD:  gamma=   0.222
 Maximum number of real-space cells 3x 3x 3
 Maximum number of reciprocal cells 3x 3x 3

    FEWALD:  cpu time    0.07: real time    0.02
   RESPFUN:  cpu time    0.00: real time    0.00


----------------------------------------- Iteration    1(   1)  ---------------------------------------


    POTLOK:  cpu time    1.82: real time    1.72
    SETDIJ:  cpu time    0.15: real time    0.16
    EDDIAG:  cpu time    2.40: real time    1.55
  RMM-DIIS:  cpu time   11.35: real time    3.57
    ORTHCH:  cpu time    0.18: real time    0.05
       DOS:  cpu time    0.00: real time    0.00
    --------------------------------------------
      LOOP:  cpu time   15.92: real time    7.05

 eigenvalue-minimisations  :    65
 total energy-change (2. order) : 0.3161082E+03  (-0.1773214E+04)
 number of electron   96.0000000 magnetization 
 augmentation part    96.0000000 magnetization 

 Free energy of the ion-electron system (eV)
  ---------------------------------------------------
  alpha Z        PSCENC =        -6.74582854
  Ewald energy   TEWEN  =     -2380.07934882
  -1/2 Hartree   DENC   =        -2.86683374
  -exchange  EXHF       =         0.00000000
  -V(xc)+E(xc)   XCENC  =      -837.64439134
  PAW double counting   =      1137.73615723     -115.16745734
  entropy T*S    EENTRO =         0.01163833
  eigenvalues    EBANDS =       807.66031410
  atomic energy  EATOM  =      1713.20396807
  ---------------------------------------------------
  free energy    TOTEN  =       316.10821794 eV

  energy without entropy =      316.09657961  energy(sigma->0) =      316.10433850


--------------------------------------------------------------------------------------------------------




----------------------------------------- Iteration    1(   2)  ---------------------------------------


    EDDIAG:  cpu time    2.24: real time    1.52
  RMM-DIIS:  cpu time   11.42: real time    3.57
    ORTHCH:  cpu time    0.18: real time    0.05
       DOS:  cpu time    0.00: real time    0.00
    --------------------------------------------
      LOOP:  cpu time   13.86: real time    5.14

 eigenvalue-minimisations  :    65
 total energy-change (2. order) :-0.3312608E+03  (-0.3232492E+03)
 number of electron   96.0000000 magnetization 
 augmentation part    96.0000000 magnetization 

 Free energy of the ion-electron system (eV)
  ---------------------------------------------------
  alpha Z        PSCENC =        -6.74582854
  Ewald energy   TEWEN  =     -2380.07934882
  -1/2 Hartree   DENC   =        -2.86683374
  -exchange  EXHF       =         0.00000000
  -V(xc)+E(xc)   XCENC  =      -837.64439134
  PAW double counting   =      1137.73615723     -115.16745734
  entropy T*S    EENTRO =         0.02334948
  eigenvalues    EBANDS =       476.38782860
  atomic energy  EATOM  =      1713.20396807
  ---------------------------------------------------
  free energy    TOTEN  =       -15.15255640 eV

  energy without entropy =      -15.17590588  energy(sigma->0) =      -15.16033956


--------------------------------------------------------------------------------------------------------




----------------------------------------- Iteration    1(   3)  ---------------------------------------


    EDDIAG:  cpu time    2.41: real time    1.54
  RMM-DIIS:  cpu time   11.51: real time    3.58
    ORTHCH:  cpu time    0.18: real time    0.05
       DOS:  cpu time    0.00: real time    0.00
    --------------------------------------------
      LOOP:  cpu time   14.11: real time    5.17

 eigenvalue-minimisations  :    65
 total energy-change (2. order) :-0.7598589E+02  (-0.7912633E+02)
 number of electron   96.0000000 magnetization 
 augmentation part    96.0000000 magnetization 

 Free energy of the ion-electron system (eV)
  ---------------------------------------------------
  alpha Z        PSCENC =        -6.74582854
  Ewald energy   TEWEN  =     -2380.07934882
  -1/2 Hartree   DENC   =        -2.86683374
  -exchange  EXHF       =         0.00000000
  -V(xc)+E(xc)   XCENC  =      -837.64439134
  PAW double counting   =      1137.73615723     -115.16745734
  entropy T*S    EENTRO =        -0.07217690
  eigenvalues    EBANDS =       400.49746813
  atomic energy  EATOM  =      1713.20396807
  ---------------------------------------------------
  free energy    TOTEN  =       -91.13844326 eV

  energy without entropy =      -91.06626636  energy(sigma->0) =      -91.11438430


--------------------------------------------------------------------------------------------------------




----------------------------------------- Iteration    1(   4)  ---------------------------------------


    EDDIAG:  cpu time    2.33: real time    1.54
  RMM-DIIS:  cpu time   11.57: real time    3.59
    ORTHCH:  cpu time    0.18: real time    0.05
       DOS:  cpu time    0.00: real time    0.00
    --------------------------------------------
      LOOP:  cpu time   14.09: real time    5.17

 eigenvalue-minimisations  :    65
 total energy-change (2. order) :-0.1697673E+02  (-0.1780678E+02)
 number of electron   96.0000000 magnetization 
 augmentation part    96.0000000 magnetization 

 Free energy of the ion-electron system (eV)
  ---------------------------------------------------
  alpha Z        PSCENC =        -6.74582854
  Ewald energy   TEWEN  =     -2380.07934882
  -1/2 Hartree   DENC   =        -2.86683374
  -exchange  EXHF       =         0.00000000
  -V(xc)+E(xc)   XCENC  =      -837.64439134
  PAW double counting   =      1137.73615723     -115.16745734
  entropy T*S    EENTRO =         0.05614008
  eigenvalues    EBANDS =       383.39241826
  atomic energy  EATOM  =      1713.20396807
  ---------------------------------------------------
  free energy    TOTEN  =      -108.11517614 eV

  energy without entropy =     -108.17131622  energy(sigma->0) =     -108.13388950


--------------------------------------------------------------------------------------------------------




----------------------------------------- Iteration    1(   5)  ---------------------------------------


    EDDIAG:  cpu time    2.33: real time    1.53
  RMM-DIIS:  cpu time   11.65: real time    3.59
    ORTHCH:  cpu time    0.18: real time    0.05
       DOS:  cpu time    0.00: real time    0.00
    --------------------------------------------
      LOOP:  cpu time   14.17: real time    5.18

 eigenvalue-minimisations  :    65
 total energy-change (2. order) :-0.6861185E+01  (-0.5558160E+01)
 number of electron   96.0000000 magnetization 
 augmentation part    96.0000000 magnetization 

 Free energy of the ion-electron system (eV)
  ---------------------------------------------------
  alpha Z        PSCENC =        -6.74582854
  Ewald energy   TEWEN  =     -2380.07934882
  -1/2 Hartree   DENC   =        -2.86683374
  -exchange  EXHF       =         0.00000000
  -V(xc)+E(xc)   XCENC  =      -837.64439134
  PAW double counting   =      1137.73615723     -115.16745734
  entropy T*S    EENTRO =        -0.04637545
  eigenvalues    EBANDS =       376.63374847
  atomic energy  EATOM  =      1713.20396807
  ---------------------------------------------------
  free energy    TOTEN  =      -114.97636147 eV

  energy without entropy =     -114.92998602  energy(sigma->0) =     -114.96090298


--------------------------------------------------------------------------------------------------------




----------------------------------------- Iteration    1(   6)  ---------------------------------------


    EDDIAG:  cpu time    2.32: real time    1.53
  RMM-DIIS:  cpu time   11.72: real time    3.60
    ORTHCH:  cpu time    0.18: real time    0.05
       DOS:  cpu time    0.00: real time    0.00
    --------------------------------------------
      LOOP:  cpu time   14.23: real time    5.18

 eigenvalue-minimisations  :    65
 total energy-change (2. order) :-0.2297449E+01  (-0.1790288E+01)
 number of electron   96.0000000 magnetization 
 augmentation part    96.0000000 magnetization 

 Free energy of the ion-electron system (eV)
  ---------------------------------------------------
  alpha Z        PSCENC =        -6.74582854
  Ewald energy   TEWEN  =     -2380.07934882
  -1/2 Hartree   DENC   =        -2.86683374
  -exchange  EXHF       =         0.00000000
  -V(xc)+E(xc)   XCENC  =      -837.64439134
  PAW double counting   =      1137.73615723     -115.16745734
  entropy T*S    EENTRO =        -0.13512699
  eigenvalues    EBANDS =       374.42505099
  atomic energy  EATOM  =      1713.20396807
  ---------------------------------------------------
  free energy    TOTEN  =      -117.27381049 eV

  energy without entropy =     -117.13868350  energy(sigma->0) =     -117.22876816


--------------------------------------------------------------------------------------------------------




----------------------------------------- Iteration    1(   7)  ---------------------------------------


    EDDIAG:  cpu time    2.27: real time    1.53
  RMM-DIIS:  cpu time   11.78: real time    3.61
    ORTHCH:  cpu time    0.18: real time    0.05
       DOS:  cpu time    0.00: real time    0.00
    --------------------------------------------
      LOOP:  cpu time   14.24: real time    5.18

 eigenvalue-minimisations  :    65
 total energy-change (2. order) :-0.7860389E+00  (-0.6307959E+00)
 number of electron   96.0000000 magnetization 
 augmentation part    96.0000000 magnetization 

 Free energy of the ion-electron system (eV)
  ---------------------------------------------------
  alpha Z        PSCENC =        -6.74582854
  Ewald energy   TEWEN  =     -2380.07934882
  -1/2 Hartree   DENC   =        -2.86683374
  -exchange  EXHF       =         0.00000000
  -V(xc)+E(xc)   XCENC  =      -837.64439134
  PAW double counting   =      1137.73615723     -115.16745734
  entropy T*S    EENTRO =        -0.19597787
  eigenvalues    EBANDS =       373.69986298
  atomic energy  EATOM  =      1713.20396807
  ---------------------------------------------------
  free energy    TOTEN  =      -118.05984938 eV

  energy without entropy =     -117.86387150  energy(sigma->0) =     -117.99452342


--------------------------------------------------------------------------------------------------------




----------------------------------------- Iteration    1(   8)  ---------------------------------------


    EDDIAG:  cpu time    2.26: real time    1.53
  RMM-DIIS:  cpu time   11.85: real time    3.61
    ORTHCH:  cpu time    0.18: real time    0.05
       DOS:  cpu time    0.00: real time    0.00
    --------------------------------------------
      LOOP:  cpu time   14.31: real time    5.19

 eigenvalue-minimisations  :    65
 total energy-change (2. order) :-0.3108935E+00  (-0.2533101E+00)
 number of electron   96.0000000 magnetization 
 augmentation part    96.0000000 magnetization 

 Free energy of the ion-electron system (eV)
  ---------------------------------------------------
  alpha Z        PSCENC =        -6.74582854
  Ewald energy   TEWEN  =     -2380.07934882
  -1/2 Hartree   DENC   =        -2.86683374
  -exchange  EXHF       =         0.00000000
  -V(xc)+E(xc)   XCENC  =      -837.64439134
  PAW double counting   =      1137.73615723     -115.16745734
  entropy T*S    EENTRO =        -0.22753290
  eigenvalues    EBANDS =       373.42052450
  atomic energy  EATOM  =      1713.20396807
  ---------------------------------------------------
  free energy    TOTEN  =      -118.37074289 eV

  energy without entropy =     -118.14320999  energy(sigma->0) =     -118.29489859


--------------------------------------------------------------------------------------------------------




----------------------------------------- Iteration    1(   9)  ---------------------------------------


    EDDIAG:  cpu time    2.26: real time    1.53
  RMM-DIIS:  cpu time   22.24: real time    6.34
    ORTHCH:  cpu time    0.18: real time    0.05
       DOS:  cpu time    0.00: real time    0.00
    --------------------------------------------
      LOOP:  cpu time   24.69: real time    7.92

 eigenvalue-minimisations  :   131
 total energy-change (2. order) :-0.2358748E+00  (-0.1878992E+00)
 number of electron   96.0000000 magnetization 
 augmentation part    96.0000000 magnetization 

 Free energy of the ion-electron system (eV)
  ---------------------------------------------------
  alpha Z        PSCENC =        -6.74582854
  Ewald energy   TEWEN  =     -2380.07934882
  -1/2 Hartree   DENC   =        -2.86683374
  -exchange  EXHF       =         0.00000000
  -V(xc)+E(xc)   XCENC  =      -837.64439134
  PAW double counting   =      1137.73615723     -115.16745734
  entropy T*S    EENTRO =        -0.26131934
  eigenvalues    EBANDS =       373.21843613
  atomic energy  EATOM  =      1713.20396807
  ---------------------------------------------------
  free energy    TOTEN  =      -118.60661770 eV

  energy without entropy =     -118.34529836  energy(sigma->0) =     -118.51951125


--------------------------------------------------------------------------------------------------------




----------------------------------------- Iteration    1(  10)  ---------------------------------------


    EDDIAG:  cpu time    2.26: real time    1.53
  RMM-DIIS:  cpu time   19.08: real time    5.51
    ORTHCH:  cpu time    0.18: real time    0.05
       DOS:  cpu time    0.00: real time    0.00
    --------------------------------------------
      LOOP:  cpu time   21.53: real time    7.08

 eigenvalue-minimisations  :   112
 total energy-change (2. order) :-0.5101685E-01  (-0.2537016E-01)
 number of electron   96.0000000 magnetization 
 augmentation part    96.0000000 magnetization 

 Free energy of the ion-electron system (eV)
  ---------------------------------------------------
  alpha Z        PSCENC =        -6.74582854
  Ewald energy   TEWEN  =     -2380.07934882
  -1/2 Hartree   DENC   =        -2.86683374
  -exchange  EXHF       =         0.00000000
  -V(xc)+E(xc)   XCENC  =      -837.64439134
  PAW double counting   =      1137.73615723     -115.16745734
  entropy T*S    EENTRO =        -0.26297675
  eigenvalues    EBANDS =       373.16907669
  atomic energy  EATOM  =      1713.20396807
  ---------------------------------------------------
  free energy    TOTEN  =      -118.65763455 eV

  energy without entropy =     -118.39465779  energy(sigma->0) =     -118.56997563


--------------------------------------------------------------------------------------------------------




----------------------------------------- Iteration    1(  11)  ---------------------------------------


    EDDIAG:  cpu time    2.26: real time    1.53
  RMM-DIIS:  cpu time   18.84: real time    5.35
    ORTHCH:  cpu time    0.18: real time    0.05
       DOS:  cpu time    0.00: real time    0.00
    --------------------------------------------
      LOOP:  cpu time   21.29: real time    6.93

 eigenvalue-minimisations  :   106
 total energy-change (2. order) :-0.5536312E-02  (-0.2155153E-02)
 number of electron   96.0000000 magnetization 
 augmentation part    96.0000000 magnetization 

 Free energy of the ion-electron system (eV)
  ---------------------------------------------------
  alpha Z        PSCENC =        -6.74582854
  Ewald energy   TEWEN  =     -2380.07934882
  -1/2 Hartree   DENC   =        -2.86683374
  -exchange  EXHF       =         0.00000000
  -V(xc)+E(xc)   XCENC  =      -837.64439134
  PAW double counting   =      1137.73615723     -115.16745734
  entropy T*S    EENTRO =        -0.26303672
  eigenvalues    EBANDS =       373.16360036
  atomic energy  EATOM  =      1713.20396807
  ---------------------------------------------------
  free energy    TOTEN  =      -118.66317086 eV

  energy without entropy =     -118.40013413  energy(sigma->0) =     -118.57549195


--------------------------------------------------------------------------------------------------------




----------------------------------------- Iteration    1(  12)  ---------------------------------------


    EDDIAG:  cpu time    2.25: real time    1.52
  RMM-DIIS:  cpu time   13.76: real time    4.01
    ORTHCH:  cpu time    0.18: real time    0.05
       DOS:  cpu time    0.00: real time    0.00
    CHARGE:  cpu time    1.30: real time    1.20
    MIXING:  cpu time    0.05: real time    0.05
    --------------------------------------------
      LOOP:  cpu time   17.56: real time    6.84

 eigenvalue-minimisations  :    70
 total energy-change (2. order) :-0.5334688E-04  (-0.1262873E-04)
 number of electron   96.0000004 magnetization 
 augmentation part    -1.1341187 magnetization 

 Broyden mixing:
  rms(total) = 0.54701E+00    rms(broyden)= 0.54699E+00
  rms(prec ) = 0.78545E+00
  weight for this iteration     100.00

 Free energy of the ion-electron system (eV)
  ---------------------------------------------------
  alpha Z        PSCENC =        -6.74582854
  Ewald energy   TEWEN  =     -2380.07934882
  -1/2 Hartree   DENC   =        -2.86683374
  -exchange  EXHF       =         0.00000000
  -V(xc)+E(xc)   XCENC  =      -837.64439134
  PAW double counting   =      1137.73615723     -115.16745734
  entropy T*S    EENTRO =        -0.26303906
  eigenvalues    EBANDS =       373.16354935
  atomic energy  EATOM  =      1713.20396807
  ---------------------------------------------------
  free energy    TOTEN  =      -118.66322420 eV

  energy without entropy =     -118.40018514  energy(sigma->0) =     -118.57554452


--------------------------------------------------------------------------------------------------------




----------------------------------------- Iteration    1(  13)  ---------------------------------------


    POTLOK:  cpu time    1.73: real time    1.73
    SETDIJ:  cpu time    0.16: real time    0.16
    EDDIAG:  cpu time    2.40: real time    1.55
  RMM-DIIS:  cpu time   21.91: real time    6.38
    ORTHCH:  cpu time    0.18: real time    0.05
       DOS:  cpu time    0.00: real time    0.00
    CHARGE:  cpu time    1.30: real time    1.20
    MIXING:  cpu time    0.05: real time    0.05
    --------------------------------------------
      LOOP:  cpu time   27.73: real time   11.12

 eigenvalue-minimisations  :   130
 total energy-change (2. order) : 0.4073552E+00  (-0.3691944E-02)
 number of electron   96.0000004 magnetization 
 augmentation part    -1.1484101 magnetization 

 Broyden mixing:
  rms(total) = 0.34076E+00    rms(broyden)= 0.34076E+00
  rms(prec ) = 0.49130E+00
  weight for this iteration     100.00

 eigenvalues of (default mixing * dielectric matrix)
  average eigenvalue GAMMA=   2.6436
  2.6436

 Free energy of the ion-electron system (eV)
  ---------------------------------------------------
  alpha Z        PSCENC =        -6.74582854
  Ewald energy   TEWEN  =     -2380.07934882
  -1/2 Hartree   DENC   =        -2.64560458
  -exchange  EXHF       =         0.00000000
  -V(xc)+E(xc)   XCENC  =      -836.42872417
  PAW double counting   =      1141.29175180     -118.93113068
  entropy T*S    EENTRO =        -0.26274186
  eigenvalues    EBANDS =       372.34178974
  atomic energy  EATOM  =      1713.20396807
  ---------------------------------------------------
  free energy    TOTEN  =      -118.25586905 eV

  energy without entropy =     -117.99312718  energy(sigma->0) =     -118.16828843


--------------------------------------------------------------------------------------------------------




----------------------------------------- Iteration    1(  14)  ---------------------------------------


    POTLOK:  cpu time    1.70: real time    1.70
    SETDIJ:  cpu time    0.16: real time    0.16
    EDDIAG:  cpu time    2.48: real time    1.62
  RMM-DIIS:  cpu time   22.17: real time    6.42
    ORTHCH:  cpu time    0.18: real time    0.05
       DOS:  cpu time    0.00: real time    0.00
    CHARGE:  cpu time    1.30: real time    1.20
    MIXING:  cpu time    0.06: real time    0.06
    --------------------------------------------
      LOOP:  cpu time   28.06: real time   11.20

 eigenvalue-minimisations  :   130
 total energy-change (2. order) : 0.3060822E+00  (-0.1278671E-01)
 number of electron   96.0000004 magnetization 
 augmentation part    -1.1779463 magnetization 

 Broyden mixing:
  rms(total) = 0.13499E-01    rms(broyden)= 0.13498E-01
  rms(prec ) = 0.15675E-01
  weight for this iteration     100.00

 eigenvalues of (default mixing * dielectric matrix)
  average eigenvalue GAMMA=   2.5012
  2.5012  2.5012

 Free energy of the ion-electron system (eV)
  ---------------------------------------------------
  alpha Z        PSCENC =        -6.74582854
  Ewald energy   TEWEN  =     -2380.07934882
  -1/2 Hartree   DENC   =        -3.73708980
  -exchange  EXHF       =         0.00000000
  -V(xc)+E(xc)   XCENC  =      -833.93328636
  PAW double counting   =      1146.25582185     -124.29217744
  entropy T*S    EENTRO =        -0.26256485
  eigenvalues    EBANDS =       371.64071910
  atomic energy  EATOM  =      1713.20396807
  ---------------------------------------------------
  free energy    TOTEN  =      -117.94978680 eV

  energy without entropy =     -117.68722195  energy(sigma->0) =     -117.86226518


--------------------------------------------------------------------------------------------------------




----------------------------------------- Iteration    1(  15)  ---------------------------------------


    POTLOK:  cpu time    1.85: real time    1.79
    SETDIJ:  cpu time    0.16: real time    0.16
    EDDIAG:  cpu time    2.40: real time    1.55
  RMM-DIIS:  cpu time   22.15: real time    6.37
    ORTHCH:  cpu time    0.18: real time    0.05
       DOS:  cpu time    0.00: real time    0.00
    CHARGE:  cpu time    1.30: real time    1.20
    MIXING:  cpu time    0.07: real time    0.06
    --------------------------------------------
      LOOP:  cpu time   28.12: real time   11.18

 eigenvalue-minimisations  :   131
 total energy-change (2. order) :-0.3490230E-03  (-0.1737557E-03)
 number of electron   96.0000004 magnetization 
 augmentation part    -1.1829706 magnetization 

 Broyden mixing:
  rms(total) = 0.35156E-02    rms(broyden)= 0.35151E-02
  rms(prec ) = 0.47089E-02
  weight for this iteration     100.00

 eigenvalues of (default mixing * dielectric matrix)
  average eigenvalue GAMMA=   2.0972
  1.0573  2.5533  2.6810

 Free energy of the ion-electron system (eV)
  ---------------------------------------------------
  alpha Z        PSCENC =        -6.74582854
  Ewald energy   TEWEN  =     -2380.07934882
  -1/2 Hartree   DENC   =        -3.77456236
  -exchange  EXHF       =         0.00000000
  -V(xc)+E(xc)   XCENC  =      -833.89270354
  PAW double counting   =      1146.80152241     -124.87691060
  entropy T*S    EENTRO =        -0.26257003
  eigenvalues    EBANDS =       371.67629759
  atomic energy  EATOM  =      1713.20396807
  ---------------------------------------------------
  free energy    TOTEN  =      -117.95013582 eV

  energy without entropy =     -117.68756580  energy(sigma->0) =     -117.86261248


--------------------------------------------------------------------------------------------------------




----------------------------------------- Iteration    1(  16)  ---------------------------------------


    POTLOK:  cpu time    1.79: real time    1.72
    SETDIJ:  cpu time    0.16: real time    0.16
    EDDIAG:  cpu time    2.40: real time    1.55
  RMM-DIIS:  cpu time   13.80: real time    4.14
    ORTHCH:  cpu time    0.18: real time    0.05
       DOS:  cpu time    0.00: real time    0.00
    --------------------------------------------
      LOOP:  cpu time   18.34: real time    7.61

 eigenvalue-minimisations  :    80
 total energy-change (2. order) :-0.1717328E-04  (-0.3030370E-05)
 number of electron   96.0000004 magnetization 
 augmentation part    -1.1829706 magnetization 

 Free energy of the ion-electron system (eV)
  ---------------------------------------------------
  alpha Z        PSCENC =        -6.74582854
  Ewald energy   TEWEN  =     -2380.07934882
  -1/2 Hartree   DENC   =        -3.80414377
  -exchange  EXHF       =         0.00000000
  -V(xc)+E(xc)   XCENC  =      -833.85690792
  PAW double counting   =      1146.89065757     -124.98085434
  entropy T*S    EENTRO =        -0.26257102
  eigenvalues    EBANDS =       371.68487578
  atomic energy  EATOM  =      1713.20396807
  ---------------------------------------------------
  free energy    TOTEN  =      -117.95015300 eV

  energy without entropy =     -117.68758198  energy(sigma->0) =     -117.86262932


--------------------------------------------------------------------------------------------------------




 average (electrostatic) potential at core
  the test charge radii are     1.0406
  (the norm of the test charge is              1.0000)
       1 -72.1928       2 -72.1928       3 -72.1928       4 -72.1928       5 -72.1928
       6 -72.1928       7 -72.1928       8 -72.1928       9 -72.1928      10 -72.1928
      11 -72.1928      12 -72.1928      13 -72.1928      14 -72.1928      15 -72.1928
      16 -72.1928      17 -72.1928      18 -72.1928      19 -72.1928      20 -72.1928
      21 -72.1928      22 -72.1928      23 -72.1928      24 -72.1928      25 -72.1928
      26 -72.1928      27 -72.1928      28 -72.1928      29 -72.1928      30 -72.1928
      31 -72.1928      32 -72.1928
 
 
 
 E-fermi :   8.5139     XC(G=0): -10.3216     alpha+bet :-15.4057
   add alpha+bet to get absolut eigen values

 k-point   1 :       0.2500    0.2500    0.2500
  band No.  band energies     occupation 
      1      -2.5710      2.00000
      2      -1.4197      2.00000
      3      -1.4197      2.00000
      4      -1.4197      2.00000
      5      -0.2779      2.00000
      6      -0.2779      2.00000
      7      -0.2779      2.00000
      8       0.8530      2.00000
      9       0.8530      2.00000
     10       0.8530      2.00000
     11       0.8545      2.00000
     12       1.9757      2.00000
     13       1.9757      2.00000
     14       1.9757      2.00000
     15       1.9757      2.00000
     16       1.9757      2.00000
     17       1.9757      2.00000
     18       3.0859      2.00000
     19       3.0859      2.00000
     20       3.0859      2.00000
     21       4.1520      2.00000
     22       4.1520      2.00000
     23       4.1520      2.00000
     24       4.1866      2.00000
     25       4.1866      2.00000
     26       4.1866      2.00000
     27       5.2375      2.00000
     28       5.2375      2.00000
     29       5.2375      2.00000
     30       5.2375      2.00000
     31       5.2375      2.00000
     32       5.2375      2.00000
     33       5.3188      2.00000
     34       5.3188      2.00000
     35       5.3188      2.00000
     36       6.3578      2.00000
     37       6.3578      2.00000
     38       6.3578      2.00000
     39       7.4190      2.00000
     40       7.4190      2.00000
     41       7.4190      2.00000
     42       7.4190      2.00000
     43       7.4190      2.00000
     44       7.4190      2.00000
     45       7.4934      2.00000
     46       8.5097      1.03543
     47       8.5097      1.03543
     48       8.5097      1.03543
     49       8.5097      1.03543
     50       8.5097      1.03543
     51       8.5097      1.03543
     52       8.7564     -0.07087
     53       8.7564     -0.07087
     54       8.7564     -0.07087
     55       9.8752      0.00000
     56       9.8752      0.00000
     57       9.8753      0.00000
     58       9.8753      0.00000
     59       9.8755      0.00000
     60       9.8766      0.00000
     61      10.6426      0.00000
     62      10.6508      0.00000
     63      10.6560      0.00000
     64      10.6686      0.00000
     65      10.7228      0.00000


--------------------------------------------------------------------------------------------------------


 soft charge-density along one line, spin component           1
         0         1         2         3         4         5         6         7         8         9
 total charge-density along one line
 
 pseudopotential strength for first ion, spin component:           1
  8.433  -0.007   0.000   0.000   0.000   0.000   0.000   0.000
 -0.007   0.000   0.000   0.000   0.000   0.000   0.000   0.000
  0.000   0.000   1.990   0.000   0.000  -0.028   0.000   0.000
  0.000   0.000   0.000   1.990   0.000   0.000  -0.028   0.000
  0.000   0.000   0.000   0.000   1.990   0.000   0.000  -0.028
  0.000   0.000  -0.028   0.000   0.000  -0.012   0.000   0.000
  0.000   0.000   0.000  -0.028   0.000   0.000  -0.012   0.000
  0.000   0.000   0.000   0.000  -0.028   0.000   0.000  -0.012
 total augmentation occupancy for first ion, spin component:           1
  1.306  -0.543   0.000   0.000   0.000   0.000   0.000   0.000
 -0.543   0.532   0.000   0.000   0.000   0.000   0.000   0.000
  0.000   0.000   0.765   0.000   0.000  -0.192   0.000   0.000
  0.000   0.000   0.000   0.765   0.000   0.000  -0.192   0.000
  0.000   0.000   0.000   0.000   0.765   0.000   0.000  -0.192
  0.000   0.000  -0.192   0.000   0.000   0.054   0.000   0.000
  0.000   0.000   0.000  -0.192   0.000   0.000   0.054   0.000
  0.000   0.000   0.000   0.000  -0.192   0.000   0.000   0.054


------------------------ aborting loop because EDIFF is reached ----------------------------------------




--------------------------------------------------------------------------------------------------------



  FREE ENERGIE OF THE ION-ELECTRON SYSTEM (eV)
  ---------------------------------------------------
  free  energy   TOTEN  =      -117.950153 eV

  energy  without entropy=     -117.687582  energy(sigma->0) =     -117.862629
 
    CHARGE:  cpu time    1.20: real time    1.20
    FORLOC:  cpu time    0.70: real time    0.70
    FORNL :  cpu time    3.22: real time    3.22
    STRESS:  cpu time   20.09: real time    5.63
    FORCOR:  cpu time    2.33: real time    2.33
    FORHAR:  cpu time    1.09: real time    1.09
    MIXING:  cpu time    0.09: real time    0.06

  FORCE on cell =-STRESS in cart. coord.  units (eV):
  Direction    XX          YY          ZZ          XY          YZ          ZX
  --------------------------------------------------------------------------------------
  Alpha Z    -6.74583    -6.74583    -6.74583
  Ewald    -793.36308  -793.36308  -793.36308     0.00000     0.00000     0.00000
  Hartree     1.26841     1.26841     1.26841     0.00000     0.00000     0.00000
  E(xc)    -277.35040  -277.35040  -277.35040     0.00000     0.00000     0.00000
  Local      15.27170    15.27170    15.27170     0.00000     0.00000     0.00000
  n-local   609.78049   609.78040   609.78040    -0.88849    -0.88848    -0.88849
  augment   -31.54357   -31.54357   -31.54356     0.00000     0.00000     0.00000
  Kinetic   493.00343   493.00342   493.00339    -8.66313    -8.66315    -8.66314
  Fock        0.00000     0.00000     0.00000     0.00000     0.00000     0.00000
  -------------------------------------------------------------------------------------
  Total      10.32108    10.32108    10.32108     0.00000     0.00000     0.00000
  in kB      32.43286    32.43286    32.43286     0.00000     0.00000     0.00000
  external pressure =       32.43 kB  Pullay stress =        0.00 kB


 VOLUME and BASIS-vectors are now :
 -----------------------------------------------------------------------------
  energy-cutoff  :      300.00
  volume of cell :      509.86
      direct lattice vectors                 reciprocal lattice vectors
     7.988835000  0.000000000  0.000000000     0.125174697  0.000000000  0.000000000
     0.000000000  7.988835000  0.000000000     0.000000000  0.125174697  0.000000000
     0.000000000  0.000000000  7.988835000     0.000000000  0.000000000  0.125174697

  length of vectors
     7.988835000  7.988835000  7.988835000     0.125174697  0.125174697  0.125174697


 FORCES acting on ions
    electron-ion (+dipol)            ewald-force                    non-local-force                 convergence-correction
 -----------------------------------------------------------------------------------------------
   -.424E-14 0.195E-14 0.594E-14   0.109E-14 -.405E-14 -.316E-14   -.156E-21 0.318E-21 0.185E-21   0.198E-13 -.529E-14 -.259E-13
   -.922E-14 -.646E-13 0.871E-13   -.283E-14 0.394E-14 -.101E-13   0.972E-23 0.251E-21 -.794E-22   -.196E-13 -.133E-13 0.353E-13
   -.111E-13 0.450E-13 -.458E-13   -.638E-14 -.152E-14 -.427E-14   -.261E-21 0.165E-22 -.132E-22   -.505E-14 0.329E-13 -.436E-13
   -.462E-14 -.453E-14 -.290E-14   -.406E-14 0.228E-14 0.453E-15   0.152E-21 0.238E-21 -.483E-21   -.336E-14 0.453E-13 0.371E-13
   -.139E-13 -.138E-12 -.447E-12   -.641E-14 0.222E-15 -.333E-14   0.397E-22 0.199E-21 -.172E-21   -.204E-13 -.102E-13 -.582E-13
   -.157E-13 -.846E-13 0.106E-12   -.272E-14 -.405E-14 -.126E-13   -.222E-21 0.205E-21 -.311E-21   0.203E-13 -.250E-13 0.595E-13
   -.164E-13 0.210E-12 -.272E-13   -.383E-14 -.192E-14 -.916E-14   0.126E-21 -.794E-22 -.450E-21   0.581E-14 0.604E-13 -.315E-13
   -.130E-13 0.244E-12 0.246E-12   -.816E-14 -.940E-15 -.242E-14   0.132E-22 -.199E-22 0.697E-21   0.267E-14 0.714E-13 0.496E-13
   -.594E-14 -.118E-13 -.214E-14   0.258E-15 -.594E-14 -.672E-14   -.132E-21 0.199E-22 -.781E-21   -.679E-14 0.355E-14 -.678E-14
   -.103E-13 0.365E-13 -.483E-13   -.683E-14 0.205E-14 -.927E-14   0.228E-21 -.827E-22 -.172E-21   0.558E-14 0.114E-13 0.358E-13
   -.132E-13 -.551E-13 -.965E-14   -.744E-14 -.672E-14 0.555E-14   0.146E-21 0.463E-22 -.251E-21   -.110E-14 -.312E-13 -.233E-13
   -.415E-14 -.174E-13 -.458E-14   -.330E-14 0.307E-14 -.203E-14   0.106E-21 0.265E-22 -.344E-21   -.142E-13 -.436E-13 0.369E-13
   -.126E-13 0.120E-12 -.595E-14   -.682E-14 0.155E-14 -.511E-14   0.132E-22 -.132E-22 0.397E-21   0.622E-14 0.681E-14 -.148E-13
   -.157E-13 -.771E-13 -.493E-13   -.516E-14 -.124E-13 0.688E-14   -.250E-21 0.331E-22 0.248E-21   -.496E-14 0.217E-13 0.421E-13
   -.180E-13 -.125E-12 0.102E-12   -.500E-14 -.334E-14 -.155E-14   -.357E-21 -.165E-22 0.238E-21   0.165E-14 -.570E-13 -.511E-14
   -.129E-13 0.641E-13 -.668E-15   -.922E-14 -.671E-14 -.197E-14   -.152E-21 0.397E-22 -.794E-21   0.137E-13 -.678E-13 0.492E-13
   -.161E-14 -.234E-14 -.612E-14   0.551E-14 0.527E-14 0.139E-14   0.127E-21 0.424E-21 -.414E-21   -.438E-14 -.499E-14 0.241E-13
   -.941E-14 0.236E-13 -.117E-13   0.500E-14 0.555E-14 -.582E-14   0.463E-22 -.172E-21 -.132E-21   0.113E-13 0.714E-14 -.322E-13
   -.821E-14 -.126E-13 0.232E-13   0.561E-14 0.136E-14 -.283E-14   0.182E-21 0.106E-21 -.265E-22   0.630E-14 0.338E-13 0.408E-13
   -.474E-14 -.628E-14 -.135E-13   0.376E-14 0.327E-14 0.135E-13   0.827E-22 -.106E-21 0.463E-21   0.888E-14 0.262E-13 -.354E-13
   -.112E-13 -.394E-13 0.154E-12   0.500E-14 0.733E-14 0.866E-14   0.239E-21 -.265E-22 0.344E-21   0.370E-14 -.959E-14 0.536E-13
   -.149E-13 0.560E-13 -.174E-12   0.566E-14 -.155E-14 0.378E-14   0.510E-21 0.912E-22 0.622E-21   -.106E-13 0.162E-14 -.563E-13
   -.141E-13 -.707E-13 -.606E-13   0.172E-14 -.194E-14 -.527E-14   0.175E-21 -.298E-22 -.132E-22   -.554E-14 0.428E-13 0.285E-13
   -.133E-13 -.400E-13 0.293E-13   0.383E-14 0.159E-14 0.130E-13   -.199E-21 0.794E-22 0.288E-21   -.957E-14 0.280E-13 -.455E-13
   -.336E-14 -.687E-14 -.520E-14   0.400E-14 -.216E-14 -.749E-14   0.529E-22 -.529E-22 0.424E-21   -.131E-13 0.413E-14 0.574E-14
   -.115E-13 -.603E-13 0.553E-13   0.500E-14 0.333E-14 0.572E-14   -.146E-21 0.662E-22 0.629E-22   0.127E-13 -.803E-14 -.340E-13
   -.933E-14 0.515E-13 -.371E-13   0.500E-14 -.715E-14 -.910E-14   0.278E-21 0.199E-22 -.172E-21   0.103E-13 -.327E-13 0.212E-13
   -.315E-14 -.200E-13 -.174E-13   0.384E-14 0.377E-14 0.109E-13   0.893E-22 0.199E-22 -.351E-21   0.389E-14 -.252E-13 -.358E-13
   -.106E-13 -.749E-13 -.501E-13   0.146E-14 0.155E-14 0.155E-14   -.162E-21 0.331E-21 0.159E-21   0.126E-13 0.766E-14 0.121E-13
   -.169E-13 0.314E-13 0.934E-13   0.389E-14 -.910E-14 -.510E-14   0.149E-21 -.844E-22 -.144E-21   -.122E-13 -.337E-14 -.404E-13
   -.146E-13 0.164E-13 0.396E-13   0.211E-14 -.156E-14 -.109E-13   -.175E-21 0.172E-21 -.154E-21   -.968E-14 -.412E-13 0.320E-14
   -.121E-13 -.122E-12 0.468E-13   0.323E-14 -.513E-14 0.214E-15   0.159E-21 -.331E-21 0.761E-21   -.440E-14 -.262E-13 -.462E-13
 -----------------------------------------------------------------------------------------------
   -.340E-12 -.132E-12 -.309E-13   -.122E-13 -.300E-13 -.467E-13   0.710E-21 0.169E-20 -.368E-21   0.470E-15 0.300E-16 -.386E-15
 
 
 POSITION                                       TOTAL-FORCE (eV/Angst)
 -----------------------------------------------------------------------------------
      0.00000      0.00000      0.00000         0.000000      0.000000      0.000000
      1.99721      0.00000      1.99721         0.000000      0.000000      0.000000
      1.99721      1.99721      0.00000         0.000000      0.000000      0.000000
      0.00000      1.99721      1.99721         0.000000      0.000000      0.000000
      3.99442      0.00000      0.00000         0.000000      0.000000      0.000000
      5.99163      0.00000      1.99721         0.000000      0.000000      0.000000
      5.99163      1.99721      0.00000         0.000000      0.000000      0.000000
      3.99442      1.99721      1.99721         0.000000      0.000000      0.000000
      0.00000      3.99442      0.00000         0.000000      0.000000      0.000000
      1.99721      3.99442      1.99721         0.000000      0.000000      0.000000
      1.99721      5.99163      0.00000         0.000000      0.000000      0.000000
      0.00000      5.99163      1.99721         0.000000      0.000000      0.000000
      3.99442      3.99442      0.00000         0.000000      0.000000      0.000000
      5.99163      3.99442      1.99721         0.000000      0.000000      0.000000
      5.99163      5.99163      0.00000         0.000000      0.000000      0.000000
      3.99442      5.99163      1.99721         0.000000      0.000000      0.000000
      0.00000      0.00000      3.99442         0.000000      0.000000      0.000000
      1.99721      0.00000      5.99163         0.000000      0.000000      0.000000
      1.99721      1.99721      3.99442         0.000000      0.000000      0.000000
      0.00000      1.99721      5.99163         0.000000      0.000000      0.000000
      3.99442      0.00000      3.99442         0.000000      0.000000      0.000000
      5.99163      0.00000      5.99163         0.000000      0.000000      0.000000
      5.99163      1.99721      3.99442         0.000000      0.000000      0.000000
      3.99442      1.99721      5.99163         0.000000      0.000000      0.000000
      0.00000      3.99442      3.99442         0.000000      0.000000      0.000000
      1.99721      3.99442      5.99163         0.000000      0.000000      0.000000
      1.99721      5.99163      3.99442         0.000000      0.000000      0.000000
      0.00000      5.99163      5.99163         0.000000      0.000000      0.000000
      3.99442      3.99442      3.99442         0.000000      0.000000      0.000000
      5.99163      3.99442      5.99163         0.000000      0.000000      0.000000
      5.99163      5.99163      3.99442         0.000000      0.000000      0.000000
      3.99442      5.99163      5.99163         0.000000      0.000000      0.000000
 -----------------------------------------------------------------------------------
    total drift:                                0.000000      0.000000      0.000000


--------------------------------------------------------------------------------------------------------


    POTLOK:  cpu time    2.01: real time    1.88


--------------------------------------------------------------------------------------------------------


  FORCES: max atom, RMS     0.000000    0.000000
  FORCE total and by dimension    0.000000    0.000000


--------------------------------------------------------------------------------------------------------


    WAVPRE:  cpu time    0.76: real time    0.76
    FEWALD:  cpu time    0.02: real time    0.02
    GENKIN:  cpu time    0.01: real time    0.01
    ORTHCH:  cpu time    2.74: real time    0.70
     LOOP+:  cpu time  336.86: real time  131.00
   RESPFUN:  cpu time    0.01: real time    0.00


----------------------------------------- Iteration    2(   1)  ---------------------------------------


    POTLOK:  cpu time    1.88: real time    1.72
    SETDIJ:  cpu time    0.15: real time    0.15
    EDDIAG:  cpu time    2.40: real time    1.55
  RMM-DIIS:  cpu time   21.88: real time    6.37
    ORTHCH:  cpu time    0.18: real time    0.05
       DOS:  cpu time    0.00: real time    0.00
    CHARGE:  cpu time    1.29: real time    1.19
    MIXING:  cpu time    0.05: real time    0.05
    --------------------------------------------
      LOOP:  cpu time   27.83: real time   11.09

 eigenvalue-minimisations  :   130
 total energy-change (2. order) :-0.1962005E+00  (-0.2915462E+00)
 number of electron   95.9999988 magnetization 
 augmentation part    -1.2200519 magnetization 

 Broyden mixing:
  rms(total) = 0.79977E-01    rms(broyden)= 0.79974E-01
  rms(prec ) = 0.12055E+00
  weight for this iteration     100.00

 Free energy of the ion-electron system (eV)
  ---------------------------------------------------
  alpha Z        PSCENC =        -6.44048679
  Ewald energy   TEWEN  =     -2343.61301581
  -1/2 Hartree   DENC   =        -3.74675114
  -exchange  EXHF       =         0.00000000
  -V(xc)+E(xc)   XCENC  =      -836.28072407
  PAW double counting   =      1146.81034479     -124.90006429
  entropy T*S    EENTRO =        -0.26379505
  eigenvalues    EBANDS =       337.08418797
  atomic energy  EATOM  =      1713.20396807
  ---------------------------------------------------
  free energy    TOTEN  =      -118.14633631 eV

  energy without entropy =     -117.88254126  energy(sigma->0) =     -118.05840463


--------------------------------------------------------------------------------------------------------




----------------------------------------- Iteration    2(   2)  ---------------------------------------


    POTLOK:  cpu time    1.71: real time    1.71
    SETDIJ:  cpu time    0.15: real time    0.15
    EDDIAG:  cpu time    2.47: real time    1.61
  RMM-DIIS:  cpu time   21.84: real time    6.34
    ORTHCH:  cpu time    0.18: real time    0.05
       DOS:  cpu time    0.00: real time    0.00
    CHARGE:  cpu time    1.29: real time    1.20
    MIXING:  cpu time    0.05: real time    0.05
    --------------------------------------------
      LOOP:  cpu time   27.71: real time   11.11

 eigenvalue-minimisations  :   130
 total energy-change (2. order) : 0.1199608E-01  (-0.3041386E-02)
 number of electron   95.9999988 magnetization 
 augmentation part    -1.2170138 magnetization 

 Broyden mixing:
  rms(total) = 0.52065E-01    rms(broyden)= 0.52065E-01
  rms(prec ) = 0.78488E-01
  weight for this iteration     100.00

 eigenvalues of (default mixing * dielectric matrix)
  average eigenvalue GAMMA=   2.8385
  2.8385

 Free energy of the ion-electron system (eV)
  ---------------------------------------------------
  alpha Z        PSCENC =        -6.44048679
  Ewald energy   TEWEN  =     -2343.61301581
  -1/2 Hartree   DENC   =        -3.66834224
  -exchange  EXHF       =         0.00000000
  -V(xc)+E(xc)   XCENC  =      -836.49165884
  PAW double counting   =      1144.66424480     -122.65087842
  entropy T*S    EENTRO =        -0.26389511
  eigenvalues    EBANDS =       337.12572410
  atomic energy  EATOM  =      1713.20396807
  ---------------------------------------------------
  free energy    TOTEN  =      -118.13434024 eV

  energy without entropy =     -117.87044512  energy(sigma->0) =     -118.04637520


--------------------------------------------------------------------------------------------------------




----------------------------------------- Iteration    2(   3)  ---------------------------------------


    POTLOK:  cpu time    1.79: real time    1.79
    SETDIJ:  cpu time    0.15: real time    0.15
    EDDIAG:  cpu time    2.40: real time    1.55
  RMM-DIIS:  cpu time   22.47: real time    6.45
    ORTHCH:  cpu time    0.18: real time    0.05
       DOS:  cpu time    0.00: real time    0.00
    CHARGE:  cpu time    1.29: real time    1.20
    MIXING:  cpu time    0.06: real time    0.06
    --------------------------------------------
      LOOP:  cpu time   28.35: real time   11.25

 eigenvalue-minimisations  :   131
 total energy-change (2. order) : 0.1026319E-01  (-0.5275004E-03)
 number of electron   95.9999988 magnetization 
 augmentation part    -1.2099185 magnetization 

 Broyden mixing:
  rms(total) = 0.42780E-02    rms(broyden)= 0.42779E-02
  rms(prec ) = 0.58503E-02
  weight for this iteration     100.00

 eigenvalues of (default mixing * dielectric matrix)
  average eigenvalue GAMMA=   1.8638
  2.6116  1.1161

 Free energy of the ion-electron system (eV)
  ---------------------------------------------------
  alpha Z        PSCENC =        -6.44048679
  Ewald energy   TEWEN  =     -2343.61301581
  -1/2 Hartree   DENC   =        -3.55461067
  -exchange  EXHF       =         0.00000000
  -V(xc)+E(xc)   XCENC  =      -836.87359875
  PAW double counting   =      1141.49929252     -119.32055286
  entropy T*S    EENTRO =        -0.26402942
  eigenvalues    EBANDS =       337.23895668
  atomic energy  EATOM  =      1713.20396807
  ---------------------------------------------------
  free energy    TOTEN  =      -118.12407704 eV

  energy without entropy =     -117.86004762  energy(sigma->0) =     -118.03606724


--------------------------------------------------------------------------------------------------------




----------------------------------------- Iteration    2(   4)  ---------------------------------------


    POTLOK:  cpu time    1.78: real time    1.72
    SETDIJ:  cpu time    0.15: real time    0.15
    EDDIAG:  cpu time    2.40: real time    1.55
  RMM-DIIS:  cpu time   13.82: real time    4.13
    ORTHCH:  cpu time    0.18: real time    0.05
       DOS:  cpu time    0.00: real time    0.00
    --------------------------------------------
      LOOP:  cpu time   18.34: real time    7.61

 eigenvalue-minimisations  :    80
 total energy-change (2. order) :-0.1376872E-04  (-0.1288013E-04)
 number of electron   95.9999988 magnetization 
 augmentation part    -1.2099185 magnetization 

 Free energy of the ion-electron system (eV)
  ---------------------------------------------------
  alpha Z        PSCENC =        -6.44048679
  Ewald energy   TEWEN  =     -2343.61301581
  -1/2 Hartree   DENC   =        -3.55671587
  -exchange  EXHF       =         0.00000000
  -V(xc)+E(xc)   XCENC  =      -836.85362916
  PAW double counting   =      1141.76739392     -119.59917362
  entropy T*S    EENTRO =        -0.26401968
  eigenvalues    EBANDS =       337.23158814
  atomic energy  EATOM  =      1713.20396807
  ---------------------------------------------------
  free energy    TOTEN  =      -118.12409081 eV

  energy without entropy =     -117.86007113  energy(sigma->0) =     -118.03608425


--------------------------------------------------------------------------------------------------------




 average (electrostatic) potential at core
  the test charge radii are     1.0406
  (the norm of the test charge is              1.0000)
       1 -72.7536       2 -72.7536       3 -72.7536       4 -72.7536       5 -72.7536
       6 -72.7536       7 -72.7536       8 -72.7536       9 -72.7536      10 -72.7536
      11 -72.7536      12 -72.7536      13 -72.7536      14 -72.7536      15 -72.7536
      16 -72.7536      17 -72.7536      18 -72.7536      19 -72.7536      20 -72.7536
      21 -72.7536      22 -72.7536      23 -72.7536      24 -72.7536      25 -72.7536
      26 -72.7536      27 -72.7536      28 -72.7536      29 -72.7536      30 -72.7536
      31 -72.7536      32 -72.7536
 
 
 
 E-fermi :   8.0279     XC(G=0): -10.1539     alpha+bet :-14.7083
   add alpha+bet to get absolut eigen values

 k-point   1 :       0.2500    0.2500    0.2500
  band No.  band energies     occupation 
      1      -2.7498      2.00000
      2      -1.6328      2.00000
      3      -1.6328      2.00000
      4      -1.6328      2.00000
      5      -0.5242      2.00000
      6      -0.5242      2.00000
      7      -0.5242      2.00000
      8       0.5747      2.00000
      9       0.5747      2.00000
     10       0.5747      2.00000
     11       0.5761      2.00000
     12       1.6664      2.00000
     13       1.6664      2.00000
     14       1.6664      2.00000
     15       1.6664      2.00000
     16       1.6664      2.00000
     17       1.6664      2.00000
     18       2.7493      2.00000
     19       2.7493      2.00000
     20       2.7493      2.00000
     21       3.7874      2.00000
     22       3.7874      2.00000
     23       3.7874      2.00000
     24       3.8219      2.00000
     25       3.8219      2.00000
     26       3.8219      2.00000
     27       4.8485      2.00000
     28       4.8485      2.00000
     29       4.8485      2.00000
     30       4.8485      2.00000
     31       4.8485      2.00000
     32       4.8485      2.00000
     33       4.9069      2.00000
     34       4.9069      2.00000
     35       4.9069      2.00000
     36       5.9242      2.00000
     37       5.9242      2.00000
     38       5.9242      2.00000
     39       6.9672      2.00000
     40       6.9672      2.00000
     41       6.9672      2.00000
     42       6.9672      2.00000
     43       6.9672      2.00000
     44       6.9672      2.00000
     45       7.0265      2.00000
     46       8.0239      1.03442
     47       8.0239      1.03442
     48       8.0239      1.03442
     49       8.0239      1.03442
     50       8.0239      1.03442
     51       8.0239      1.03442
     52       8.2573     -0.06884
     53       8.2573     -0.06884
     54       8.2573     -0.06884
     55       9.3331      0.00000
     56       9.3331      0.00000
     57       9.3331      0.00000
     58       9.3331      0.00000
     59       9.3331      0.00000
     60       9.3332      0.00000
     61      10.0876      0.00000
     62      10.0976      0.00000
     63      10.1011      0.00000
     64      10.1114      0.00000
     65      10.1291      0.00000


--------------------------------------------------------------------------------------------------------


 soft charge-density along one line, spin component           1
         0         1         2         3         4         5         6         7         8         9
 total charge-density along one line
 
 pseudopotential strength for first ion, spin component:           1
  8.448  -0.006   0.000   0.000   0.000   0.000   0.000   0.000
 -0.006   0.000   0.000   0.000   0.000   0.000   0.000   0.000
  0.000   0.000   1.988   0.000   0.000  -0.026   0.000   0.000
  0.000   0.000   0.000   1.988   0.000   0.000  -0.026   0.000
  0.000   0.000   0.000   0.000   1.988   0.000   0.000  -0.026
  0.000   0.000  -0.026   0.000   0.000  -0.012   0.000   0.000
  0.000   0.000   0.000  -0.026   0.000   0.000  -0.012   0.000
  0.000   0.000   0.000   0.000  -0.026   0.000   0.000  -0.012
 total augmentation occupancy for first ion, spin component:           1
  1.318  -0.489   0.000   0.000   0.000   0.000   0.000   0.000
 -0.489   0.475   0.000   0.000   0.000   0.000   0.000   0.000
  0.000   0.000   0.729   0.000   0.000  -0.182   0.000   0.000
  0.000   0.000   0.000   0.729   0.000   0.000  -0.182   0.000
  0.000   0.000   0.000   0.000   0.729   0.000   0.000  -0.182
  0.000   0.000  -0.182   0.000   0.000   0.051   0.000   0.000
  0.000   0.000   0.000  -0.182   0.000   0.000   0.051   0.000
  0.000   0.000   0.000   0.000  -0.182   0.000   0.000   0.051


------------------------ aborting loop because EDIFF is reached ----------------------------------------




--------------------------------------------------------------------------------------------------------



  FREE ENERGIE OF THE ION-ELECTRON SYSTEM (eV)
  ---------------------------------------------------
  free  energy   TOTEN  =      -118.124091 eV

  energy  without entropy=     -117.860071  energy(sigma->0) =     -118.036084
 
    CHARGE:  cpu time    1.20: real time    1.20
    FORLOC:  cpu time    0.70: real time    0.70
    FORNL :  cpu time    3.20: real time    3.20
    STRESS:  cpu time   19.50: real time    5.47
    FORCOR:  cpu time    2.36: real time    2.36
    FORHAR:  cpu time    1.09: real time    1.09
    MIXING:  cpu time    0.07: real time    0.06

  FORCE on cell =-STRESS in cart. coord.  units (eV):
  Direction    XX          YY          ZZ          XY          YZ          ZX
  --------------------------------------------------------------------------------------
  Alpha Z    -6.44049    -6.44049    -6.44049
  Ewald    -781.20759  -781.20759  -781.20759     0.00000     0.00000     0.00000
  Hartree     1.18343     1.18343     1.18343     0.00000     0.00000     0.00000
  E(xc)    -273.21287  -273.21287  -273.21287     0.00000     0.00000     0.00000
  Local       9.22098     9.22098     9.22098     0.00000     0.00000     0.00000
  n-local   601.79969   601.79968   601.79967    -0.57787    -0.57788    -0.57789
  augment   -32.26435   -32.26434   -32.26436     0.00000     0.00000     0.00000
  Kinetic   478.39672   478.39672   478.39674    -8.52735    -8.52733    -8.52735
  Fock        0.00000     0.00000     0.00000     0.00000     0.00000     0.00000
  -------------------------------------------------------------------------------------
  Total      -2.52449    -2.52449    -2.52449     0.00000     0.00000     0.00000
  in kB      -7.57385    -7.57385    -7.57385     0.00000     0.00000     0.00000
  external pressure =       -7.57 kB  Pullay stress =        0.00 kB


 VOLUME and BASIS-vectors are now :
 -----------------------------------------------------------------------------
  energy-cutoff  :      300.00
  volume of cell :      534.03
      direct lattice vectors                 reciprocal lattice vectors
     8.113140299  0.000000000  0.000000000     0.123256836  0.000000000  0.000000000
     0.000000000  8.113140299  0.000000000     0.000000000  0.123256836  0.000000000
     0.000000000  0.000000000  8.113140299     0.000000000  0.000000000  0.123256836

  length of vectors
     8.113140299  8.113140299  8.113140299     0.123256836  0.123256836  0.123256836


 FORCES acting on ions
    electron-ion (+dipol)            ewald-force                    non-local-force                 convergence-correction
 -----------------------------------------------------------------------------------------------
   -.283E-14 0.116E-14 0.557E-14   -.531E-14 0.633E-14 -.105E-13   -.712E-22 -.497E-22 -.331E-21   -.301E-15 -.366E-14 -.901E-14
   -.112E-13 -.631E-13 0.871E-13   -.344E-14 0.849E-14 0.196E-13   0.232E-22 0.132E-22 -.376E-21   -.789E-14 -.444E-14 0.125E-13
   -.113E-13 0.477E-13 -.450E-13   0.144E-14 0.823E-14 -.988E-14   0.660E-23 0.106E-21 -.149E-21   -.543E-14 0.163E-13 -.114E-13
   -.179E-14 -.412E-14 -.354E-14   -.128E-14 0.160E-14 0.154E-13   0.364E-22 0.119E-21 -.292E-21   -.442E-14 0.189E-13 0.126E-13
   -.127E-13 -.134E-12 -.422E-12   -.348E-14 0.433E-14 -.455E-14   -.129E-21 0.297E-22 0.179E-21   0.216E-14 -.522E-14 -.130E-13
   -.156E-13 -.809E-13 0.991E-13   -.211E-14 0.983E-14 0.116E-13   -.397E-22 0.579E-22 -.343E-21   0.594E-14 -.758E-14 0.156E-13
   -.156E-13 0.201E-12 -.245E-13   0.233E-14 0.278E-14 -.855E-14   -.232E-22 0.124E-21 0.112E-21   0.396E-14 0.225E-13 -.939E-14
   -.111E-13 0.237E-12 0.248E-12   0.854E-14 0.389E-14 0.137E-13   -.330E-23 0.994E-23 -.122E-21   0.583E-14 0.236E-13 0.143E-13
   -.356E-14 -.111E-13 -.169E-14   -.507E-15 0.366E-14 0.411E-14   -.894E-22 0.222E-21 0.463E-22   -.766E-14 0.401E-14 -.544E-14
   -.979E-14 0.316E-13 -.543E-13   0.278E-14 0.389E-15 0.118E-13   -.156E-21 0.496E-22 -.212E-21   -.209E-14 0.448E-14 0.121E-13
   -.119E-13 -.604E-13 -.910E-14   0.888E-15 0.277E-14 0.133E-13   0.529E-22 0.761E-22 0.424E-21   -.325E-14 -.164E-13 -.818E-14
   -.326E-14 -.182E-13 -.461E-14   -.259E-14 0.138E-14 -.622E-14   0.660E-23 -.112E-21 -.761E-22   -.826E-14 -.192E-13 0.126E-13
[...]


    POTLOK:  cpu time    1.72: real time    1.72
    SETDIJ:  cpu time    0.15: real time    0.15
    EDDIAG:  cpu time    2.40: real time    1.55
  RMM-DIIS:  cpu time   13.83: real time    4.17
    ORTHCH:  cpu time    0.18: real time    0.05
       DOS:  cpu time    0.00: real time    0.00
    CHARGE:  cpu time    1.29: real time    1.20
    MIXING:  cpu time    0.06: real time    0.05
    --------------------------------------------
      LOOP:  cpu time   19.64: real time    8.89

 eigenvalue-minimisations  :    79
 total energy-change (2. order) : 0.4060125E-03  (-0.2072676E-04)
 number of electron   95.9999991 magnetization 
 augmentation part    -1.2023717 magnetization 

 Broyden mixing:
  rms(total) = 0.73464E-03    rms(broyden)= 0.73463E-03
  rms(prec ) = 0.97685E-03
  weight for this iteration     100.00

 eigenvalues of (default mixing * dielectric matrix)
  average eigenvalue GAMMA=   1.8806
  2.5954  1.1658

 Free energy of the ion-electron system (eV)
  ---------------------------------------------------
  alpha Z        PSCENC =        -6.50301236
  Ewald energy   TEWEN  =     -2351.17269684
  -1/2 Hartree   DENC   =        -3.59422188
  -exchange  EXHF       =         0.00000000
  -V(xc)+E(xc)   XCENC  =      -836.23980971
  PAW double counting   =      1142.93077804     -120.81278674
  entropy T*S    EENTRO =        -0.26344393
  eigenvalues    EBANDS =       344.31483099
  atomic energy  EATOM  =      1713.20396807
  ---------------------------------------------------
  free energy    TOTEN  =      -118.13639436 eV

  energy without entropy =     -117.87295042  energy(sigma->0) =     -118.04857971


--------------------------------------------------------------------------------------------------------




----------------------------------------- Iteration    3(   4)  ---------------------------------------


    POTLOK:  cpu time    1.76: real time    1.71
    SETDIJ:  cpu time    0.15: real time    0.15
    EDDIAG:  cpu time    2.40: real time    1.55
  RMM-DIIS:  cpu time   12.38: real time    3.76
    ORTHCH:  cpu time    0.18: real time    0.05
       DOS:  cpu time    0.00: real time    0.00
    --------------------------------------------
      LOOP:  cpu time   16.88: real time    7.22

 eigenvalue-minimisations  :    71
 total energy-change (2. order) :-0.2027410E-05  (-0.2523646E-05)
 number of electron   95.9999991 magnetization 
 augmentation part    -1.2023717 magnetization 

 Free energy of the ion-electron system (eV)
  ---------------------------------------------------
  alpha Z        PSCENC =        -6.50301236
  Ewald energy   TEWEN  =     -2351.17269684
  -1/2 Hartree   DENC   =        -3.59392712
  -exchange  EXHF       =         0.00000000
  -V(xc)+E(xc)   XCENC  =      -836.24286007
  PAW double counting   =      1142.89031173     -120.77096302
  entropy T*S    EENTRO =        -0.26344554
  eigenvalues    EBANDS =       344.31622876
  atomic energy  EATOM  =      1713.20396807
  ---------------------------------------------------
  free energy    TOTEN  =      -118.13639638 eV

  energy without entropy =     -117.87295085  energy(sigma->0) =     -118.04858121


--------------------------------------------------------------------------------------------------------




 average (electrostatic) potential at core
  the test charge radii are     1.0406
  (the norm of the test charge is              1.0000)
       1 -72.6367       2 -72.6367       3 -72.6367       4 -72.6367       5 -72.6367
       6 -72.6367       7 -72.6367       8 -72.6367       9 -72.6367      10 -72.6367
      11 -72.6367      12 -72.6367      13 -72.6367      14 -72.6367      15 -72.6367
      16 -72.6367      17 -72.6367      18 -72.6367      19 -72.6367      20 -72.6367
      21 -72.6367      22 -72.6367      23 -72.6367      24 -72.6367      25 -72.6367
      26 -72.6367      27 -72.6367      28 -72.6367      29 -72.6367      30 -72.6367
      31 -72.6367      32 -72.6367
 
 
 
 E-fermi :   8.1280     XC(G=0): -10.1886     alpha+bet :-14.8511
   add alpha+bet to get absolut eigen values

 k-point   1 :       0.2500    0.2500    0.2500
  band No.  band energies     occupation 
      1      -2.7133      2.00000
      2      -1.5892      2.00000
      3      -1.5892      2.00000
      4      -1.5892      2.00000
      5      -0.4737      2.00000
      6      -0.4737      2.00000
      7      -0.4737      2.00000
      8       0.6318      2.00000
      9       0.6318      2.00000
     10       0.6318      2.00000
     11       0.6332      2.00000
     12       1.7300      2.00000
     13       1.7300      2.00000
     14       1.7300      2.00000
     15       1.7300      2.00000
     16       1.7300      2.00000
     17       1.7300      2.00000
     18       2.8187      2.00000
     19       2.8187      2.00000
     20       2.8187      2.00000
     21       3.8624      2.00000
     22       3.8624      2.00000
     23       3.8624      2.00000
     24       3.8971      2.00000
     25       3.8971      2.00000
     26       3.8971      2.00000
     27       4.9287      2.00000
     28       4.9287      2.00000
     29       4.9287      2.00000
     30       4.9287      2.00000
     31       4.9287      2.00000
     32       4.9287      2.00000
     33       4.9914      2.00000
     34       4.9914      2.00000
     35       4.9914      2.00000
     36       6.0133      2.00000
     37       6.0133      2.00000
     38       6.0133      2.00000
     39       7.0602      2.00000
     40       7.0602      2.00000
     41       7.0602      2.00000
     42       7.0602      2.00000
     43       7.0602      2.00000
     44       7.0602      2.00000
     45       7.1225      2.00000
     46       8.1239      1.03483
     47       8.1239      1.03483
     48       8.1239      1.03483
     49       8.1239      1.03483
     50       8.1239      1.03483
     51       8.1239      1.03483
     52       8.3607     -0.06966
     53       8.3607     -0.06966
     54       8.3607     -0.06966
     55       9.4452      0.00000
     56       9.4452      0.00000
     57       9.4452      0.00000
     58       9.4452      0.00000
     59       9.4452      0.00000
     60       9.4452      0.00000
     61      10.2010      0.00000
     62      10.2039      0.00000
     63      10.2139      0.00000
     64      10.2236      0.00000
     65      10.2276      0.00000


--------------------------------------------------------------------------------------------------------


 soft charge-density along one line, spin component           1
         0         1         2         3         4         5         6         7         8         9
 total charge-density along one line
 
 pseudopotential strength for first ion, spin component:           1
  8.445  -0.006   0.000   0.000   0.000   0.000   0.000   0.000
 -0.006   0.000   0.000   0.000   0.000   0.000   0.000   0.000
  0.000   0.000   1.988   0.000   0.000  -0.027   0.000   0.000
  0.000   0.000   0.000   1.988   0.000   0.000  -0.027   0.000
  0.000   0.000   0.000   0.000   1.988   0.000   0.000  -0.027
  0.000   0.000  -0.027   0.000   0.000  -0.012   0.000   0.000
  0.000   0.000   0.000  -0.027   0.000   0.000  -0.012   0.000
  0.000   0.000   0.000   0.000  -0.027   0.000   0.000  -0.012
 total augmentation occupancy for first ion, spin component:           1
  1.315  -0.512   0.000   0.000   0.000   0.000   0.000   0.000
 -0.512   0.496   0.000   0.000   0.000   0.000   0.000   0.000
  0.000   0.000   0.736   0.000   0.000  -0.184   0.000   0.000
  0.000   0.000   0.000   0.736   0.000   0.000  -0.184   0.000
  0.000   0.000   0.000   0.000   0.736   0.000   0.000  -0.184
  0.000   0.000  -0.184   0.000   0.000   0.052   0.000   0.000
  0.000   0.000   0.000  -0.184   0.000   0.000   0.052   0.000
  0.000   0.000   0.000   0.000  -0.184   0.000   0.000   0.052


------------------------ aborting loop because EDIFF is reached ----------------------------------------




--------------------------------------------------------------------------------------------------------



  FREE ENERGIE OF THE ION-ELECTRON SYSTEM (eV)
  ---------------------------------------------------
  free  energy   TOTEN  =      -118.136396 eV

  energy  without entropy=     -117.872951  energy(sigma->0) =     -118.048581
 
    CHARGE:  cpu time    1.20: real time    1.20
    FORLOC:  cpu time    0.70: real time    0.70
    FORNL :  cpu time    3.20: real time    3.20
    STRESS:  cpu time   19.92: real time    5.59
    FORCOR:  cpu time    2.38: real time    2.38
    FORHAR:  cpu time    1.10: real time    1.10
    MIXING:  cpu time    0.07: real time    0.06

  FORCE on cell =-STRESS in cart. coord.  units (eV):
  Direction    XX          YY          ZZ          XY          YZ          ZX
  --------------------------------------------------------------------------------------
  Alpha Z    -6.50301    -6.50301    -6.50301
  Ewald    -783.72749  -783.72749  -783.72749     0.00000     0.00000     0.00000
  Hartree     1.19839     1.19839     1.19839     0.00000     0.00000     0.00000
  E(xc)    -274.07151  -274.07151  -274.07151     0.00000     0.00000     0.00000
  Local      10.51563    10.51563    10.51563     0.00000     0.00000     0.00000
  n-local   603.28023   603.28013   603.28022    -0.64354    -0.64354    -0.64358
  augment   -32.07244   -32.07244   -32.07242     0.00000     0.00000     0.00000
  Kinetic   481.38809   481.38807   481.38808    -8.55962    -8.55962    -8.55960
  Fock        0.00000     0.00000     0.00000     0.00000     0.00000     0.00000
  -------------------------------------------------------------------------------------
  Total       0.00783     0.00783     0.00783     0.00000     0.00000     0.00000
  in kB       0.02373     0.02373     0.02373     0.00000     0.00000     0.00000
  external pressure =        0.02 kB  Pullay stress =        0.00 kB


 VOLUME and BASIS-vectors are now :
 -----------------------------------------------------------------------------
  energy-cutoff  :      300.00
  volume of cell :      528.90
      direct lattice vectors                 reciprocal lattice vectors
     8.087054273  0.000000000  0.000000000     0.123654419  0.000000000  0.000000000
     0.000000000  8.087054273  0.000000000     0.000000000  0.123654419  0.000000000
     0.000000000  0.000000000  8.087054273     0.000000000  0.000000000  0.123654419

  length of vectors
     8.087054273  8.087054273  8.087054273     0.123654419  0.123654419  0.123654419


 FORCES acting on ions
    electron-ion (+dipol)            ewald-force                    non-local-force                 convergence-correction
 -----------------------------------------------------------------------------------------------
   -.616E-15 0.166E-14 0.574E-14   -.752E-14 0.139E-14 -.389E-15   -.194E-22 0.132E-22 0.662E-23   -.272E-14 -.589E-14 -.333E-14
   -.531E-14 -.636E-13 0.883E-13   -.228E-14 0.117E-14 0.757E-15   -.910E-23 -.182E-22 -.734E-23   -.561E-14 -.492E-14 0.413E-14
   -.615E-14 0.478E-13 -.462E-13   -.316E-14 0.468E-14 -.833E-15   -.447E-22 -.265E-22 0.827E-23   -.431E-14 0.125E-13 -.354E-14
   -.576E-15 -.477E-14 -.318E-14   -.496E-15 0.255E-14 0.581E-15   -.306E-22 -.182E-22 0.000E+00   -.433E-14 0.140E-13 0.409E-14
   -.883E-14 -.134E-12 -.427E-12   0.125E-14 -.416E-14 -.611E-15   -.230E-22 -.190E-22 0.182E-22   0.232E-14 -.766E-14 -.372E-14
   -.130E-13 -.806E-13 0.102E-12   -.705E-14 -.167E-15 0.539E-15   -.136E-22 0.327E-22 0.620E-23   0.599E-14 -.890E-14 0.449E-14
   -.142E-13 0.201E-12 -.249E-13   -.572E-14 0.401E-14 -.167E-15   0.163E-23 0.240E-22 0.910E-23   0.515E-14 0.186E-13 -.331E-14
   -.525E-14 0.240E-12 0.248E-12   0.306E-14 0.257E-14 0.344E-15   0.198E-22 0.339E-22 -.331E-23   0.347E-14 0.178E-13 0.433E-14
   -.238E-14 -.118E-13 -.181E-14   -.538E-14 0.305E-14 0.139E-14   -.497E-23 -.508E-23 0.496E-23   -.985E-14 0.543E-14 -.281E-14
   -.498E-14 0.344E-13 -.531E-13   -.117E-14 0.305E-14 0.209E-14   0.356E-22 0.199E-22 -.827E-23   -.543E-15 0.473E-14 0.402E-14
   -.773E-14 -.579E-13 -.933E-14   -.122E-14 0.141E-14 -.611E-15   -.116E-22 0.827E-23 -.108E-22   -.176E-14 -.123E-13 -.318E-14
   -.122E-14 -.189E-13 -.524E-14   0.475E-14 0.471E-14 0.566E-15   -.120E-22 -.246E-22 0.134E-22   -.876E-14 -.136E-13 0.411E-14
   -.691E-14 0.126E-12 -.698E-14   0.731E-14 0.772E-14 -.239E-14   0.165E-23 0.128E-22 -.827E-24   0.713E-14 0.741E-14 -.311E-14
   -.131E-13 -.832E-13 -.497E-13   -.167E-15 0.394E-14 -.124E-14   0.931E-23 0.166E-23 -.372E-23   0.326E-14 0.836E-14 0.422E-14
   -.146E-13 -.129E-12 0.979E-13   -.555E-15 -.631E-15 0.117E-14   -.556E-23 -.265E-22 0.116E-22   0.400E-14 -.181E-13 -.291E-14
   -.671E-14 0.639E-13 -.498E-14   0.589E-14 0.162E-14 0.250E-14   -.157E-22 -.132E-22 0.414E-23   0.658E-14 -.176E-13 0.437E-14
   0.171E-14 -.347E-14 -.544E-14   -.594E-14 -.389E-15 0.389E-15   -.306E-22 -.201E-22 0.786E-23   -.306E-14 -.590E-14 0.350E-14
   -.555E-14 0.224E-13 -.141E-13   -.122E-14 -.239E-14 -.840E-15   0.132E-22 -.232E-22 -.132E-22   -.525E-14 -.455E-14 -.434E-14
   -.365E-14 -.153E-13 0.216E-13   -.272E-14 0.217E-14 0.833E-15   -.465E-23 -.247E-23 -.496E-23   -.409E-14 0.124E-13 0.369E-14
   -.775E-15 -.633E-14 -.128E-13   0.482E-14 -.305E-14 -.608E-15   -.372E-22 0.827E-23 -.223E-22   -.411E-14 0.135E-13 -.428E-14
   -.655E-14 -.385E-13 0.152E-12   0.232E-14 -.239E-14 0.611E-15   0.372E-22 0.155E-22 -.993E-23   0.267E-14 -.769E-14 0.384E-14
   -.132E-13 0.551E-13 -.176E-12   -.233E-14 -.772E-14 -.637E-15   -.232E-22 0.497E-23 0.744E-23   0.562E-14 -.848E-14 -.466E-14
   -.119E-13 -.700E-13 -.657E-13   -.394E-14 0.325E-15 0.167E-15   -.273E-22 -.108E-22 -.414E-24   0.494E-14 0.184E-13 0.345E-14
   -.625E-14 -.404E-13 0.260E-13   0.216E-14 0.230E-15 -.385E-15   -.208E-22 0.203E-22 -.329E-22   0.322E-14 0.172E-13 -.449E-14
   -.108E-14 -.755E-14 -.447E-14   -.342E-15 0.389E-15 -.139E-14   -.390E-22 0.289E-22 0.000E+00   -.100E-13 0.545E-14 0.295E-14
   -.569E-14 -.596E-13 0.561E-13   -.122E-14 0.611E-15 -.215E-14   -.457E-22 -.112E-22 0.424E-22   -.238E-15 0.436E-14 -.421E-14
   -.492E-14 0.526E-13 -.377E-13   -.122E-14 -.215E-14 0.611E-15   -.455E-23 -.331E-23 -.827E-24   -.153E-14 -.122E-13 0.333E-14
   -.692E-15 -.208E-13 -.170E-13   0.671E-14 0.115E-14 0.295E-14   0.132E-22 0.165E-22 0.132E-22   -.848E-14 -.131E-13 -.429E-14
   -.576E-14 -.775E-13 -.482E-13   0.769E-14 0.239E-14 0.239E-14   -.223E-22 0.332E-23 -.662E-23   0.732E-14 0.746E-14 0.322E-14
   -.127E-13 0.360E-13 0.943E-13   0.122E-14 -.117E-14 -.239E-14   -.190E-22 0.298E-22 0.187E-22   0.299E-14 0.796E-14 -.438E-14
   -.105E-13 0.158E-13 0.458E-13   0.122E-14 -.610E-15 -.117E-14   -.661E-23 0.232E-22 0.203E-22   0.374E-14 -.178E-13 0.302E-14
   -.649E-14 -.130E-12 0.454E-13   0.765E-14 -.603E-15 0.118E-14   -.414E-24 0.132E-22 -.827E-24   0.628E-14 -.170E-13 -.452E-14
 -----------------------------------------------------------------------------------------------
   -.205E-12 -.157E-12 -.325E-13   0.240E-14 0.237E-13 0.324E-14   -.340E-21 0.882E-22 0.662E-22   -.213E-16 -.124E-15 -.318E-15
 
 
 POSITION                                       TOTAL-FORCE (eV/Angst)
 -----------------------------------------------------------------------------------
      0.00000      0.00000      0.00000         0.000000      0.000000      0.000000
      2.02176      0.00000      2.02176         0.000000      0.000000      0.000000
      2.02176      2.02176      0.00000         0.000000      0.000000      0.000000
      0.00000      2.02176      2.02176         0.000000      0.000000      0.000000
      4.04353      0.00000      0.00000         0.000000      0.000000      0.000000
      6.06529      0.00000      2.02176         0.000000      0.000000      0.000000
      6.06529      2.02176      0.00000         0.000000      0.000000      0.000000
      4.04353      2.02176      2.02176         0.000000      0.000000      0.000000
      0.00000      4.04353      0.00000         0.000000      0.000000      0.000000
      2.02176      4.04353      2.02176         0.000000      0.000000      0.000000
      2.02176      6.06529      0.00000         0.000000      0.000000      0.000000
      0.00000      6.06529      2.02176         0.000000      0.000000      0.000000
      4.04353      4.04353      0.00000         0.000000      0.000000      0.000000
      6.06529      4.04353      2.02176         0.000000      0.000000      0.000000
      6.06529      6.06529      0.00000         0.000000      0.000000      0.000000
      4.04353      6.06529      2.02176         0.000000      0.000000      0.000000
      0.00000      0.00000      4.04353         0.000000      0.000000      0.000000
      2.02176      0.00000      6.06529         0.000000      0.000000      0.000000
      2.02176      2.02176      4.04353         0.000000      0.000000      0.000000
      0.00000      2.02176      6.06529         0.000000      0.000000      0.000000
      4.04353      0.00000      4.04353         0.000000      0.000000      0.000000
      6.06529      0.00000      6.06529         0.000000      0.000000      0.000000
      6.06529      2.02176      4.04353         0.000000      0.000000      0.000000
      4.04353      2.02176      6.06529         0.000000      0.000000      0.000000
      0.00000      4.04353      4.04353         0.000000      0.000000      0.000000
      2.02176      4.04353      6.06529         0.000000      0.000000      0.000000
      2.02176      6.06529      4.04353         0.000000      0.000000      0.000000
      0.00000      6.06529      6.06529         0.000000      0.000000      0.000000
      4.04353      4.04353      4.04353         0.000000      0.000000      0.000000
      6.06529      4.04353      6.06529         0.000000      0.000000      0.000000
      6.06529      6.06529      4.04353         0.000000      0.000000      0.000000
      4.04353      6.06529      6.06529         0.000000      0.000000      0.000000
 -----------------------------------------------------------------------------------
    total drift:                                0.000000      0.000000      0.000000
 d Force = 0.0000000E+00[ 0.000E+00, 0.000E+00]  d Energy = 0.1230557E-01-0.123E-01
 d Force = 0.0000000E+00[ 0.000E+00, 0.000E+00]  d Ewald  = 0.7559681E+01-0.756E+01


--------------------------------------------------------------------------------------------------------


    POTLOK:  cpu time    1.95: real time    1.87


--------------------------------------------------------------------------------------------------------


  FORCES: max atom, RMS     0.000000    0.000000
  FORCE total and by dimension    0.000000    0.000000


--------------------------------------------------------------------------------------------------------


  
 reached required accuracy - stopping structural energy minimisation
     LOOP+:  cpu time  120.12: real time   53.73
    4ORBIT:  cpu time    0.00: real time    0.00

 total amount of memory used by VASP on root node 118324. kBytes
========================================================================

   base      :    30000. kBytes
   nonl-proj :     3460. kBytes
   fftplans  :    30736. kBytes
   grid      :    47517. kBytes
   one-center:       98. kBytes
   wavefun   :     6513. kBytes
 
  
  
 General timing and accounting informations for this job:
 ========================================================
  
                  Total CPU time used (sec):      598.777
                            User time (sec):      592.213
                          System time (sec):        6.564
                         Elapsed time (sec):      246.927
  
                   Maximum memory used (kb):           0.
                   Average memory used (kb):           0.
  
                          Minor page faults:       231037
                          Major page faults:            0
                 Voluntary context switches:         3487
