Processors received = 1
script running on host compute-0-1.local
PBS_NODEFILE
compute-0-1
 running on    1 nodes
 distr:  one band on    1 nodes,    1 groups
 vasp.5.2.2 15Apr09 complex 
 POSCAR found type information on POSCAR  Al
 POSCAR found :  1 types and   32 ions

 ----------------------------------------------------------------------------- 
|                                                                             |
|  ADVICE TO THIS USER RUNNING 'VASP/VAMP'   (HEAR YOUR MASTER'S VOICE ...):  |
|                                                                             |
|      You have a (more or less) 'large supercell' and for larger cells       |
|      it might be more efficient to use real space projection operators      |
|      So try LREAL= Auto  in the INCAR   file.                               |
|      Mind: If you want to do a very accurate calculations keep the          |
|      reciprocal projection scheme          (i.e. LREAL=.FALSE.)             |
|                                                                             |
 ----------------------------------------------------------------------------- 

 LDA part: xc-table for Pade appr. of Perdew
 POSCAR, INCAR and KPOINTS ok, starting setup
 FFT: planning ...(           5 )
 reading WAVECAR
 entering main loop
       N       E                     dE             d eps       ncg     rms          rms(c)
RMM:   1     0.316108217943E+03    0.31611E+03   -0.17732E+04    65   0.641E+02
RMM:   2    -0.151525564012E+02   -0.33126E+03   -0.32325E+03    65   0.136E+02
RMM:   3    -0.911384432629E+02   -0.75986E+02   -0.79126E+02    65   0.459E+01
RMM:   4    -0.108115176143E+03   -0.16977E+02   -0.17807E+02    65   0.253E+01
RMM:   5    -0.114976361466E+03   -0.68612E+01   -0.55582E+01    65   0.134E+01
RMM:   6    -0.117273810486E+03   -0.22974E+01   -0.17903E+01    65   0.708E+00
RMM:   7    -0.118059849375E+03   -0.78604E+00   -0.63080E+00    65   0.391E+00
RMM:   8    -0.118370742886E+03   -0.31089E+00   -0.25331E+00    65   0.217E+00
RMM:   9    -0.118606617700E+03   -0.23587E+00   -0.18790E+00   131   0.128E+00
RMM:  10    -0.118657634546E+03   -0.51017E-01   -0.25370E-01   112   0.306E-01
RMM:  11    -0.118663170857E+03   -0.55363E-02   -0.21552E-02   106   0.671E-02
RMM:  12    -0.118663224204E+03   -0.53347E-04   -0.12629E-04    70   0.155E-02    0.547E+00
RMM:  13    -0.118255869046E+03    0.40736E+00   -0.36919E-02   130   0.608E-01    0.341E+00
RMM:  14    -0.117949786801E+03    0.30608E+00   -0.12787E-01   130   0.105E+00    0.135E-01
RMM:  15    -0.117950135824E+03   -0.34902E-03   -0.17376E-03   131   0.150E-01    0.352E-02
RMM:  16    -0.117950152997E+03   -0.17173E-04   -0.30304E-05    80   0.182E-02
   1 F= -.11795015E+03 E0= -.11786263E+03  d E =-.117950E+03
 curvature:   0.00 expect dE= 0.000E+00 dE for cont linesearch  0.000E+00
 trial: gam= 0.00000 g(F)=  0.689E-60 g(S)=  0.482E+00 ort = 0.000E+00 (trialstep = 0.100E+01)
 search vector abs. value=  0.482E+00
 bond charge predicted
       N       E                     dE             d eps       ncg     rms          rms(c)
RMM:   1    -0.118146336311E+03   -0.19620E+00   -0.29155E+00   130   0.477E+00    0.800E-01
RMM:   2    -0.118134340235E+03    0.11996E-01   -0.30414E-02   130   0.373E-01    0.521E-01
RMM:   3    -0.118124077044E+03    0.10263E-01   -0.52750E-03   131   0.187E-01    0.428E-02
RMM:   4    -0.118124090813E+03   -0.13769E-04   -0.12880E-04    80   0.517E-02
   2 F= -.11812409E+03 E0= -.11803608E+03  d E =-.173938E+00
 trial-energy change:   -0.173938  1 .order   -0.181971   -0.481784    0.117842
 step:   0.7901(harm=  0.8035)  dis= 0.00000  next Energy=  -118.136530 (dE=-0.186E+00)
 bond charge predicted
       N       E                     dE             d eps       ncg     rms          rms(c)
RMM:   1    -0.118137306729E+03   -0.13230E-01   -0.13146E-01   130   0.101E+00    0.170E-01
RMM:   2    -0.118136800369E+03    0.50636E-03   -0.11904E-03   108   0.738E-02    0.109E-01
RMM:   3    -0.118136394357E+03    0.40601E-03   -0.20727E-04    79   0.411E-02    0.735E-03
RMM:   4    -0.118136396384E+03   -0.20274E-05   -0.25236E-05    71   0.215E-02
   3 F= -.11813640E+03 E0= -.11804858E+03  d E =-.186243E+00
 curvature:  -0.40 expect dE=-0.111E-06 dE for cont linesearch -0.111E-06
 trial: gam=-0.00076 g(F)=  0.243E-60 g(S)=  0.277E-06 ort = 0.366E-03 (trialstep = 0.958E+00)
 search vector abs. value=  0.100E-09
 reached required accuracy - stopping structural energy minimisation
