<?xml version="1.0" encoding="ISO-8859-1"?>
<modeling>
 <generator>
  <i name="program" type="string">vasp </i>
  <i name="version" type="string">5.2.2  </i>
  <i name="subversion" type="string">15Apr09 complex  parallel </i>
  <i name="platform" type="string">LinuxIFC </i>
  <i name="date" type="string">2014 04 24 </i>
  <i name="time" type="string">09:28:53 </i>
 </generator>
 <incar>
  <i type="string" name="PREC">accurate</i>
  <i type="int" name="IALGO">    48</i>
  <i type="int" name="IBRION">     2</i>
  <i name="EDIFFG">      0.05000000</i>
  <i type="int" name="NSW">   191</i>
  <i type="int" name="ISIF">     3</i>
  <i name="ENCUT">    300.00000000</i>
  <i type="int" name="ISMEAR">     1</i>
  <i name="SIGMA">      0.20000000</i>
  <i type="logical" name="LWAVE"> F  </i>
  <i type="logical" name="LCHARG"> F  </i>
  <i type="logical" name="LPEAD"> F  </i>
  <i type="logical" name="LCALCPOL"> F  </i>
  <i type="logical" name="LCALCEPS"> F  </i>
  <v name="EFIELD_PEAD">      0.00000000      0.00000000      0.00000000</v>
  <i type="logical" name="LEFG"> F  </i>
 </incar>
 <kpoints>
  <generation param="Monkhorst-Pack">
   <v type="int" name="divisions">       2        2        2 </v>
   <v name="usershift">      0.00000000       0.00000000       0.00000000 </v>
   <v name="genvec1">      0.50000000       0.00000000       0.00000000 </v>
   <v name="genvec2">      0.00000000       0.50000000       0.00000000 </v>
   <v name="genvec3">      0.00000000       0.00000000       0.50000000 </v>
   <v name="shift">      0.50000000       0.50000000       0.50000000 </v>
  </generation>
  <varray name="kpointlist" >
   <v>       0.25000000       0.25000000       0.25000000 </v>
  </varray>
  <varray name="weights" >
   <v>       1.00000000 </v>
  </varray>
 </kpoints>
 <parameters>
  <separator name="general" >
   <i type="string" name="SYSTEM">unknown system</i>
   <i type="logical" name="LCOMPAT"> F  </i>
  </separator>
  <separator name="electronic" >
   <i type="string" name="PREC">accura</i>
   <i name="ENMAX">    300.00000000</i>
   <i name="ENAUG">    291.05200000</i>
   <i name="EDIFF">      0.00010000</i>
   <i type="int" name="IALGO">    48</i>
   <i type="int" name="IWAVPR">    11</i>
   <i type="int" name="NBANDS">    65</i>
   <i name="NELECT">     96.00000000</i>
   <separator name="electronic smearing" >
    <i type="int" name="ISMEAR">     1</i>
    <i name="SIGMA">      0.20000000</i>
   </separator>
   <separator name="electronic projectors" >
    <i type="logical" name="LREAL"> F  </i>
    <v name="ROPT">      0.00000000</v>
    <i type="int" name="LMAXPAW">  -100</i>
    <i type="int" name="LMAXMIX">     2</i>
   </separator>
   <separator name="electronic startup" >
    <i type="int" name="ISTART">     0</i>
    <i type="int" name="ICHARG">     2</i>
    <i type="int" name="INIWAV">     1</i>
   </separator>
   <separator name="electronic spin" >
    <i type="int" name="ISPIN">     1</i>
    <i type="logical" name="LNONCOLLINEAR"> F  </i>
    <v name="MAGMOM">      1.00000000      1.00000000      1.00000000      1.00000000      1.00000000      1.00000000      1.00000000      1.00000000      1.00000000      1.00000000      1.00000000      1.00000000      1.00000000      1.00000000      1.00000000      1.00000000      1.00000000      1.00000000      1.00000000      1.00000000
      1.00000000      1.00000000      1.00000000      1.00000000      1.00000000      1.00000000      1.00000000      1.00000000      1.00000000      1.00000000      1.00000000      1.00000000</v>
    <i name="NUPDOWN">     -1.00000000</i>
    <i type="logical" name="LSORBIT"> F  </i>
    <v name="SAXIS">      0.00000000      0.00000000      1.00000000</v>
    <i type="logical" name="LSPIRAL"> F  </i>
    <v name="QSPIRAL">      0.00000000      0.00000000      0.00000000</v>
    <i type="logical" name="LZEROZ"> F  </i>
   </separator>
   <separator name="electronic exchange-correlation" >
    <i type="logical" name="LASPH"> F  </i>
    <i type="logical" name="LMETAGGA"> F  </i>
   </separator>
   <separator name="electronic convergence" >
    <i type="int" name="NELM">    60</i>
    <i type="int" name="NELMDL">   -12</i>
    <i type="int" name="NELMIN">     2</i>
    <i name="ENINI">    300.00000000</i>
    <separator name="electronic convergence detail" >
     <i type="logical" name="LDIAG"> T  </i>
     <i name="WEIMIN">      0.00100000</i>
     <i name="EBREAK">      0.00000038</i>
     <i name="DEPER">      0.30000000</i>
     <i type="int" name="NRMM">     4</i>
     <i name="TIME">      0.40000000</i>
    </separator>
   </separator>
   <separator name="electronic mixer" >
    <i name="AMIX">      0.40000000</i>
    <i name="BMIX">      1.00000000</i>
    <i name="AMIN">      0.10000000</i>
    <i name="AMIX_MAG">      1.60000000</i>
    <i name="BMIX_MAG">      1.00000000</i>
    <separator name="electronic mixer details" >
     <i type="int" name="IMIX">     4</i>
     <i type="int" name="MAXMIX">   -45</i>
     <i name="WC">    100.00000000</i>
     <i type="int" name="INIMIX">     1</i>
     <i type="int" name="MIXPRE">     1</i>
     <i type="int" name="MREMOVE">     5</i>
    </separator>
   </separator>
   <separator name="electronic dipolcorrection" >
    <i type="logical" name="LDIPOL"> F  </i>
    <i type="logical" name="LMONO"> F  </i>
    <i type="int" name="IDIPOL">     0</i>
    <i name="EPSILON">      1.00000000</i>
    <v name="DIPOL">   -100.00000000   -100.00000000   -100.00000000</v>
    <i name="EFIELD">      0.00000000</i>
   </separator>
  </separator>
  <separator name="grids" >
   <i type="int" name="NGX">    48</i>
   <i type="int" name="NGY">    48</i>
   <i type="int" name="NGZ">    48</i>
   <i type="int" name="NGXF">    96</i>
   <i type="int" name="NGYF">    96</i>
   <i type="int" name="NGZF">    96</i>
   <i type="logical" name="ADDGRID"> F  </i>
  </separator>
  <separator name="ionic" >
   <i type="int" name="NSW">   191</i>
   <i type="int" name="IBRION">     2</i>
   <i type="int" name="ISIF">     3</i>
   <i name="PSTRESS">      0.00000000</i>
   <i name="EDIFFG">      0.05000000</i>
   <i type="int" name="NFREE">     1</i>
   <i name="POTIM">      0.50000000</i>
   <i name="SMASS">     -3.00000000</i>
  </separator>
  <separator name="ionic md" >
   <i name="TEBEG">      0.00010000</i>
   <i name="TEEND">      0.00010000</i>
   <i type="int" name="NBLOCK">     1</i>
   <i type="int" name="KBLOCK">   191</i>
   <i type="int" name="NPACO">   256</i>
   <i name="APACO">     16.00000000</i>
  </separator>
  <separator name="symmetry" >
   <i type="int" name="ISYM">     2</i>
   <i name="SYMPREC">      0.00001000</i>
  </separator>
  <separator name="dos" >
   <i type="logical" name="LORBIT"> F  </i>
   <v name="RWIGS">     -1.00000000</v>
   <i type="int" name="NEDOS">   301</i>
   <i name="EMIN">     10.00000000</i>
   <i name="EMAX">    -10.00000000</i>
   <i name="EFERMI">      0.00000000</i>
  </separator>
  <separator name="writing" >
   <i type="int" name="NWRITE">     2</i>
   <i type="logical" name="LWAVE"> F  </i>
   <i type="logical" name="LCHARG"> F  </i>
   <i type="logical" name="LPARD"> F  </i>
   <i type="logical" name="LVTOT"> F  </i>
   <i type="logical" name="LELF"> F  </i>
   <i type="logical" name="LOPTICS"> F  </i>
   <v name="STM">      0.00000000      0.00000000      0.00000000      0.00000000      0.00000000</v>
  </separator>
  <separator name="performance" >
   <i type="int" name="NPAR">     1</i>
   <i type="int" name="NSIM">     4</i>
   <i type="int" name="NBLK">    32</i>
   <i type="logical" name="LPLANE"> T  </i>
   <i type="logical" name="LSCALAPACK"> F  </i>
   <i type="logical" name="LSCAAWARE"> F  </i>
   <i type="logical" name="LSCALU"> F  </i>
   <i type="logical" name="LASYNC"> F  </i>
  </separator>
  <separator name="miscellaneous" >
   <i type="int" name="IDIOT">     3</i>
   <i type="logical" name="LMUSIC"> F  </i>
   <v name="POMASS">     26.98200000</v>
   <i type="logical" name="LCORR"> T  </i>
  </separator>
  <i type="logical" name="LREAL_COMPAT"> F  </i>
  <i type="logical" name="GGA_COMPAT"> T  </i>
  <i type="logical" name="LBERRY"> F  </i>
  <i type="int" name="ICORELEVEL">     0</i>
  <i type="logical" name="LDAU"> F  </i>
  <i type="int" name="I_CONSTRAINED_M">     0</i>
  <separator name="electronic exchange-correlation" >
   <i type="string" name="GGA">--</i>
   <i type="int" name="VOSKOWN">     0</i>
   <i type="logical" name="LHFCALC"> F  </i>
   <i type="logical" name="LHFONE"> F  </i>
   <i type="logical" name="LRHFCALC"> F  </i>
   <i type="logical" name="LTHOMAS"> F  </i>
   <i type="logical" name="LMODELHF"> F  </i>
   <i name="ENCUTFOCK">      0.00000000</i>
   <i name="ENCUT4O">     -1.00000000</i>
   <i type="int" name="EXXOEP">     0</i>
   <i type="int" name="FOURORBIT">     0</i>
   <i name="AEXX">      0.00000000</i>
   <i name="HFALPHA">      0.00000000</i>
   <i name="ALDAX">      1.00000000</i>
   <i name="AGGAX">      1.00000000</i>
   <i name="ALDAC">      1.00000000</i>
   <i name="AGGAC">      1.00000000</i>
   <i type="int" name="NKREDX">     1</i>
   <i type="int" name="NKREDY">     1</i>
   <i type="int" name="NKREDZ">     1</i>
   <i type="logical" name="SHIFTRED"> F  </i>
   <i type="logical" name="ODDONLY"> F  </i>
   <i type="logical" name="EVENONLY"> F  </i>
   <i type="int" name="LMAXFOCK">     0</i>
   <i type="int" name="NMAXFOCKAE">     0</i>
   <i name="HFSCREEN">      0.00000000</i>
   <i name="HFSCREENC">      0.00000000</i>
  </separator>
  <separator name="model GW" >
   <i type="int" name="MODEL_GW">     0</i>
   <i name="MODEL_EPS0">      9.55986207</i>
   <i name="MODEL_ALPHA">      1.00000000</i>
  </separator>
  <separator name="linear response parameters" >
   <i type="logical" name="LEPSILON"> F  </i>
   <i type="logical" name="LRPA"> F  </i>
   <i type="logical" name="LNABLA"> F  </i>
   <i type="logical" name="LVEL"> F  </i>
   <i type="int" name="KINTER">     0</i>
   <i name="CSHIFT">      0.10000000</i>
   <i name="OMEGAMAX">     -1.00000000</i>
  </separator>
  <separator name="orbital magnetization" >
   <i type="logical" name="ORBITALMAG"> F  </i>
   <i type="logical" name="LMAGBLOCH"> F  </i>
   <i type="logical" name="LCHIMAG"> F  </i>
   <i type="logical" name="LGAUGE"> T  </i>
   <i type="int" name="MAGATOM">     0</i>
   <v name="MAGDIPOL">      0.00000000      0.00000000      0.00000000</v>
   <v name="AVECCONST">      0.00000000      0.00000000      0.00000000</v>
  </separator>
  <separator name="response functions" >
   <i type="logical" name="LRPA"> T  </i>
   <i type="logical" name="LTCTE"> F  </i>
   <i type="logical" name="LTETE"> F  </i>
   <i type="logical" name="L2ORDER"> F  </i>
   <i type="logical" name="LGWLF"> F  </i>
   <i name="ENCUTGW">    200.00000000</i>
   <i name="ENCUTGWSOFT">     -2.00000000</i>
   <i name="ENCUTLF">     -1.00000000</i>
   <i type="int" name="LMAXMP2">    -1</i>
   <i name="SCISSOR">      0.00000000</i>
   <i type="int" name="NOMEGA">     0</i>
   <i type="int" name="NOMEGAR">     0</i>
   <i type="int" name="NBANDSGW">    -1</i>
   <i type="int" name="NBANDSLF">    -1</i>
   <i type="int" name="NELM">     1</i>
   <i type="int" name="DIM">     3</i>
   <i type="int" name="ANTIRES">     0</i>
   <i type="logical" name="LUSEW"> F  </i>
   <i name="OMEGAMAX">    -30.00000000</i>
   <i name="OMEGATL">   -200.00000000</i>
   <i type="int" name="OMEGAGRID">     0</i>
   <i name="CSHIFT">     -0.10000000</i>
   <i type="logical" name="SELFENERGY"> F  </i>
   <i type="logical" name="LSPECTRAL"> F  </i>
   <i type="logical" name="ODDONLYGW"> F  </i>
   <i type="logical" name="EVENONLYGW"> F  </i>
   <i type="int" name="NKREDLFX">     1</i>
   <i type="int" name="NKREDLFY">     1</i>
   <i type="int" name="NKREDLFZ">     1</i>
   <i type="int" name="MAXMEM">  1024</i>
   <i type="int" name="TELESCOPE">     0</i>
  </separator>
 </parameters>
 <atominfo>
  <atoms>      32 </atoms>
  <types>       1 </types>
  <array name="atoms" >
   <dimension dim="1">ion</dimension>
   <field type="string">element</field>
   <field type="int">atomtype</field>
   <set>
    <rc><c>Al</c><c>   1</c></rc>
    <rc><c>Al</c><c>   1</c></rc>
    <rc><c>Al</c><c>   1</c></rc>
    <rc><c>Al</c><c>   1</c></rc>
    <rc><c>Al</c><c>   1</c></rc>
    <rc><c>Al</c><c>   1</c></rc>
    <rc><c>Al</c><c>   1</c></rc>
    <rc><c>Al</c><c>   1</c></rc>
    <rc><c>Al</c><c>   1</c></rc>
    <rc><c>Al</c><c>   1</c></rc>
    <rc><c>Al</c><c>   1</c></rc>
    <rc><c>Al</c><c>   1</c></rc>
    <rc><c>Al</c><c>   1</c></rc>
    <rc><c>Al</c><c>   1</c></rc>
    <rc><c>Al</c><c>   1</c></rc>
    <rc><c>Al</c><c>   1</c></rc>
    <rc><c>Al</c><c>   1</c></rc>
    <rc><c>Al</c><c>   1</c></rc>
    <rc><c>Al</c><c>   1</c></rc>
    <rc><c>Al</c><c>   1</c></rc>
    <rc><c>Al</c><c>   1</c></rc>
    <rc><c>Al</c><c>   1</c></rc>
    <rc><c>Al</c><c>   1</c></rc>
    <rc><c>Al</c><c>   1</c></rc>
    <rc><c>Al</c><c>   1</c></rc>
    <rc><c>Al</c><c>   1</c></rc>
    <rc><c>Al</c><c>   1</c></rc>
    <rc><c>Al</c><c>   1</c></rc>
    <rc><c>Al</c><c>   1</c></rc>
    <rc><c>Al</c><c>   1</c></rc>
    <rc><c>Al</c><c>   1</c></rc>
    <rc><c>Al</c><c>   1</c></rc>
   </set>
  </array>
  <array name="atomtypes" >
   <dimension dim="1">type</dimension>
   <field type="int">atomspertype</field>
   <field type="string">element</field>
   <field>mass</field>
   <field>valence</field>
   <field type="string">pseudopotential</field>
   <set>
    <rc><c>  32</c><c>Al</c><c>     26.98200000</c><c>      3.00000000</c><c> PAW_PBE Al 04Jan2001                   </c></rc>
   </set>
  </array>
 </atominfo>
 <structure name="initialpos" >
  <crystal>
   <varray name="basis" >
    <v>       7.98883500       0.00000000       0.00000000 </v>
    <v>       0.00000000       7.98883500       0.00000000 </v>
    <v>       0.00000000       0.00000000       7.98883500 </v>
   </varray>
   <i name="volume">    509.85931038 </i>
   <varray name="rec_basis" >
    <v>       0.12517470       0.00000000       0.00000000 </v>
    <v>       0.00000000       0.12517470       0.00000000 </v>
    <v>       0.00000000       0.00000000       0.12517470 </v>
   </varray>
  </crystal>
  <varray name="positions" >
   <v>       0.00000000       0.00000000       0.00000000 </v>
   <v>       0.25000000       0.00000000       0.25000000 </v>
   <v>       0.25000000       0.25000000       0.00000000 </v>
   <v>       0.00000000       0.25000000       0.25000000 </v>
   <v>       0.50000000       0.00000000       0.00000000 </v>
   <v>       0.75000000       0.00000000       0.25000000 </v>
   <v>       0.75000000       0.25000000       0.00000000 </v>
   <v>       0.50000000       0.25000000       0.25000000 </v>
   <v>       0.00000000       0.50000000       0.00000000 </v>
   <v>       0.25000000       0.50000000       0.25000000 </v>
   <v>       0.25000000       0.75000000       0.00000000 </v>
   <v>       0.00000000       0.75000000       0.25000000 </v>
   <v>       0.50000000       0.50000000       0.00000000 </v>
   <v>       0.75000000       0.50000000       0.25000000 </v>
   <v>       0.75000000       0.75000000       0.00000000 </v>
   <v>       0.50000000       0.75000000       0.25000000 </v>
   <v>       0.00000000       0.00000000       0.50000000 </v>
   <v>       0.25000000       0.00000000       0.75000000 </v>
   <v>       0.25000000       0.25000000       0.50000000 </v>
   <v>       0.00000000       0.25000000       0.75000000 </v>
   <v>       0.50000000       0.00000000       0.50000000 </v>
   <v>       0.75000000       0.00000000       0.75000000 </v>
   <v>       0.75000000       0.25000000       0.50000000 </v>
   <v>       0.50000000       0.25000000       0.75000000 </v>
   <v>       0.00000000       0.50000000       0.50000000 </v>
   <v>       0.25000000       0.50000000       0.75000000 </v>
   <v>       0.25000000       0.75000000       0.50000000 </v>
   <v>       0.00000000       0.75000000       0.75000000 </v>
   <v>       0.50000000       0.50000000       0.50000000 </v>
   <v>       0.75000000       0.50000000       0.75000000 </v>
   <v>       0.75000000       0.75000000       0.50000000 </v>
   <v>       0.50000000       0.75000000       0.75000000 </v>
  </varray>
 </structure>
 <calculation>
  <scstep>
   <time name="diag">    2.40    1.55</time>
   <time name="diis">   11.35    3.57</time>
   <time name="orth">    0.18    0.05</time>
   <time name="total">   15.92    7.05</time>
   <energy>
    <i name="alphaZ">     -6.74582854 </i>
    <i name="ewald">  -2380.07934882 </i>
    <i name="hartreedc">     -2.86683374 </i>
    <i name="XCdc">   -837.64439134 </i>
    <i name="pawpsdc">   1137.73615723 </i>
    <i name="pawaedc">   -115.16745734 </i>
    <i name="eentropy">      0.01163833 </i>
    <i name="bandstr">    807.66031410 </i>
    <i name="atom">   1713.20396807 </i>
    <i name="e_fr_energy">    316.10821794 </i>
    <i name="e_wo_entrp">    316.09657961 </i>
    <i name="e_0_energy">    316.10433850 </i>
   </energy>
  </scstep>
  <scstep>
   <time name="diag">    2.24    1.52</time>
   <time name="diis">   11.42    3.57</time>
   <time name="orth">    0.18    0.05</time>
   <time name="total">   13.86    5.14</time>
   <energy>
    <i name="e_fr_energy">    -15.15255640 </i>
    <i name="e_wo_entrp">    -15.17590588 </i>
    <i name="e_0_energy">    -15.16033956 </i>
   </energy>
  </scstep>
  <scstep>
   <time name="diag">    2.41    1.54</time>
   <time name="diis">   11.51    3.58</time>
   <time name="orth">    0.18    0.05</time>
   <time name="total">   14.11    5.17</time>
   <energy>
    <i name="e_fr_energy">    -91.13844326 </i>
    <i name="e_wo_entrp">    -91.06626636 </i>
    <i name="e_0_energy">    -91.11438430 </i>
   </energy>
  </scstep>
  <scstep>
   <time name="diag">    2.33    1.54</time>
   <time name="diis">   11.57    3.59</time>
   <time name="orth">    0.18    0.05</time>
   <time name="total">   14.09    5.17</time>
   <energy>
    <i name="e_fr_energy">   -108.11517614 </i>
    <i name="e_wo_entrp">   -108.17131622 </i>
    <i name="e_0_energy">   -108.13388950 </i>
   </energy>
  </scstep>
  <scstep>
   <time name="diag">    2.33    1.53</time>
   <time name="diis">   11.65    3.59</time>
   <time name="orth">    0.18    0.05</time>
   <time name="total">   14.17    5.18</time>
   <energy>
    <i name="e_fr_energy">   -114.97636147 </i>
    <i name="e_wo_entrp">   -114.92998602 </i>
    <i name="e_0_energy">   -114.96090298 </i>
   </energy>
  </scstep>
  <scstep>
   <time name="diag">    2.32    1.53</time>
   <time name="diis">   11.72    3.60</time>
   <time name="orth">    0.18    0.05</time>
   <time name="total">   14.23    5.18</time>
   <energy>
    <i name="e_fr_energy">   -117.27381049 </i>
    <i name="e_wo_entrp">   -117.13868350 </i>
    <i name="e_0_energy">   -117.22876816 </i>
   </energy>
  </scstep>
  <scstep>
   <time name="diag">    2.27    1.53</time>
   <time name="diis">   11.78    3.61</time>
   <time name="orth">    0.18    0.05</time>
   <time name="total">   14.24    5.18</time>
   <energy>
    <i name="e_fr_energy">   -118.05984938 </i>
    <i name="e_wo_entrp">   -117.86387150 </i>
    <i name="e_0_energy">   -117.99452342 </i>
   </energy>
  </scstep>
  <scstep>
   <time name="diag">    2.26    1.53</time>
   <time name="diis">   11.85    3.61</time>
   <time name="orth">    0.18    0.05</time>
   <time name="total">   14.31    5.19</time>
   <energy>
    <i name="e_fr_energy">   -118.37074289 </i>
    <i name="e_wo_entrp">   -118.14320999 </i>
    <i name="e_0_energy">   -118.29489859 </i>
   </energy>
  </scstep>
  <scstep>
   <time name="diag">    2.26    1.53</time>
   <time name="diis">   22.24    6.34</time>
   <time name="orth">    0.18    0.05</time>
   <time name="total">   24.69    7.92</time>
   <energy>
    <i name="e_fr_energy">   -118.60661770 </i>
    <i name="e_wo_entrp">   -118.34529836 </i>
    <i name="e_0_energy">   -118.51951125 </i>
   </energy>
  </scstep>
  <scstep>
   <time name="diag">    2.26    1.53</time>
   <time name="diis">   19.08    5.51</time>
   <time name="orth">    0.18    0.05</time>
   <time name="total">   21.53    7.08</time>
   <energy>
    <i name="e_fr_energy">   -118.65763455 </i>
    <i name="e_wo_entrp">   -118.39465779 </i>
    <i name="e_0_energy">   -118.56997563 </i>
   </energy>
  </scstep>
  <scstep>
   <time name="diag">    2.26    1.53</time>
   <time name="diis">   18.84    5.35</time>
   <time name="orth">    0.18    0.05</time>
   <time name="total">   21.29    6.93</time>
   <energy>
    <i name="e_fr_energy">   -118.66317086 </i>
    <i name="e_wo_entrp">   -118.40013413 </i>
    <i name="e_0_energy">   -118.57549195 </i>
   </energy>
  </scstep>
  <scstep>
   <time name="diag">    2.25    1.52</time>
   <time name="diis">   13.76    4.01</time>
   <time name="orth">    0.18    0.05</time>
   <time name="total">   17.56    6.84</time>
   <energy>
    <i name="e_fr_energy">   -118.66322420 </i>
    <i name="e_wo_entrp">   -118.40018514 </i>
    <i name="e_0_energy">   -118.57554452 </i>
   </energy>
  </scstep>
  <scstep>
   <time name="diag">    2.40    1.55</time>
   <time name="diis">   21.91    6.38</time>
   <time name="orth">    0.18    0.05</time>
   <time name="total">   27.73   11.12</time>
   <energy>
    <i name="e_fr_energy">   -118.25586905 </i>
    <i name="e_wo_entrp">   -117.99312718 </i>
    <i name="e_0_energy">   -118.16828843 </i>
   </energy>
  </scstep>
  <scstep>
   <time name="diag">    2.48    1.62</time>
   <time name="diis">   22.17    6.42</time>
   <time name="orth">    0.18    0.05</time>
   <time name="total">   28.06   11.20</time>
   <energy>
    <i name="e_fr_energy">   -117.94978680 </i>
    <i name="e_wo_entrp">   -117.68722195 </i>
    <i name="e_0_energy">   -117.86226518 </i>
   </energy>
  </scstep>
  <scstep>
   <time name="diag">    2.40    1.55</time>
   <time name="diis">   22.15    6.37</time>
   <time name="orth">    0.18    0.05</time>
   <time name="total">   28.12   11.18</time>
   <energy>
    <i name="e_fr_energy">   -117.95013582 </i>
    <i name="e_wo_entrp">   -117.68756580 </i>
    <i name="e_0_energy">   -117.86261248 </i>
   </energy>
  </scstep>
  <scstep>
   <time name="diag">    2.40    1.55</time>
   <time name="diis">   13.80    4.14</time>
   <time name="orth">    0.18    0.05</time>
   <time name="total">   18.34    7.61</time>
   <energy>
    <i name="alphaZ">     -6.74582854 </i>
    <i name="ewald">  -2380.07934882 </i>
    <i name="hartreedc">     -3.80414377 </i>
    <i name="XCdc">   -833.85690792 </i>
    <i name="pawpsdc">   1146.89065757 </i>
    <i name="pawaedc">   -124.98085434 </i>
    <i name="eentropy">     -0.26257102 </i>
    <i name="bandstr">    371.68487578 </i>
    <i name="atom">   1713.20396807 </i>
    <i name="e_fr_energy">   -117.95015300 </i>
    <i name="e_wo_entrp">   -117.68758198 </i>
    <i name="e_0_energy">   -117.86262932 </i>
   </energy>
  </scstep>
  <structure>
   <crystal>
    <varray name="basis" >
     <v>       7.98883500       0.00000000       0.00000000 </v>
     <v>       0.00000000       7.98883500       0.00000000 </v>
     <v>       0.00000000       0.00000000       7.98883500 </v>
    </varray>
    <i name="volume">    509.85931038 </i>
    <varray name="rec_basis" >
     <v>       0.12517470       0.00000000       0.00000000 </v>
     <v>       0.00000000       0.12517470       0.00000000 </v>
     <v>       0.00000000       0.00000000       0.12517470 </v>
    </varray>
   </crystal>
   <varray name="positions" >
    <v>       0.00000000       0.00000000       0.00000000 </v>
    <v>       0.25000000       0.00000000       0.25000000 </v>
    <v>       0.25000000       0.25000000       0.00000000 </v>
    <v>       0.00000000       0.25000000       0.25000000 </v>
    <v>       0.50000000       0.00000000       0.00000000 </v>
    <v>       0.75000000       0.00000000       0.25000000 </v>
    <v>       0.75000000       0.25000000       0.00000000 </v>
    <v>       0.50000000       0.25000000       0.25000000 </v>
    <v>       0.00000000       0.50000000       0.00000000 </v>
    <v>       0.25000000       0.50000000       0.25000000 </v>
    <v>       0.25000000       0.75000000       0.00000000 </v>
    <v>       0.00000000       0.75000000       0.25000000 </v>
    <v>       0.50000000       0.50000000       0.00000000 </v>
    <v>       0.75000000       0.50000000       0.25000000 </v>
    <v>       0.75000000       0.75000000       0.00000000 </v>
    <v>       0.50000000       0.75000000       0.25000000 </v>
    <v>       0.00000000       0.00000000       0.50000000 </v>
    <v>       0.25000000       0.00000000       0.75000000 </v>
    <v>       0.25000000       0.25000000       0.50000000 </v>
    <v>       0.00000000       0.25000000       0.75000000 </v>
    <v>       0.50000000       0.00000000       0.50000000 </v>
    <v>       0.75000000       0.00000000       0.75000000 </v>
    <v>       0.75000000       0.25000000       0.50000000 </v>
    <v>       0.50000000       0.25000000       0.75000000 </v>
    <v>       0.00000000       0.50000000       0.50000000 </v>
    <v>       0.25000000       0.50000000       0.75000000 </v>
    <v>       0.25000000       0.75000000       0.50000000 </v>
    <v>       0.00000000       0.75000000       0.75000000 </v>
    <v>       0.50000000       0.50000000       0.50000000 </v>
    <v>       0.75000000       0.50000000       0.75000000 </v>
    <v>       0.75000000       0.75000000       0.50000000 </v>
    <v>       0.50000000       0.75000000       0.75000000 </v>
   </varray>
  </structure>
  <varray name="forces" >
   <v>       0.00000000       0.00000000       0.00000000 </v>
   <v>       0.00000000       0.00000000       0.00000000 </v>
   <v>       0.00000000       0.00000000       0.00000000 </v>
   <v>       0.00000000       0.00000000       0.00000000 </v>
   <v>       0.00000000       0.00000000       0.00000000 </v>
   <v>       0.00000000       0.00000000       0.00000000 </v>
   <v>       0.00000000       0.00000000       0.00000000 </v>
   <v>       0.00000000       0.00000000       0.00000000 </v>
   <v>       0.00000000       0.00000000       0.00000000 </v>
   <v>       0.00000000       0.00000000       0.00000000 </v>
   <v>       0.00000000       0.00000000       0.00000000 </v>
   <v>       0.00000000       0.00000000       0.00000000 </v>
   <v>       0.00000000       0.00000000       0.00000000 </v>
   <v>       0.00000000       0.00000000       0.00000000 </v>
   <v>       0.00000000       0.00000000       0.00000000 </v>
   <v>       0.00000000       0.00000000       0.00000000 </v>
   <v>       0.00000000       0.00000000       0.00000000 </v>
   <v>       0.00000000       0.00000000       0.00000000 </v>
   <v>       0.00000000       0.00000000       0.00000000 </v>
   <v>       0.00000000       0.00000000       0.00000000 </v>
   <v>       0.00000000       0.00000000       0.00000000 </v>
   <v>       0.00000000       0.00000000       0.00000000 </v>
   <v>       0.00000000       0.00000000       0.00000000 </v>
   <v>       0.00000000       0.00000000       0.00000000 </v>
   <v>       0.00000000       0.00000000       0.00000000 </v>
   <v>       0.00000000       0.00000000       0.00000000 </v>
   <v>       0.00000000       0.00000000       0.00000000 </v>
   <v>       0.00000000       0.00000000       0.00000000 </v>
   <v>       0.00000000       0.00000000       0.00000000 </v>
   <v>       0.00000000       0.00000000       0.00000000 </v>
   <v>       0.00000000       0.00000000       0.00000000 </v>
   <v>       0.00000000       0.00000000       0.00000000 </v>
  </varray>
  <varray name="stress" >
   <v>      32.43285691       0.00000000       0.00000000 </v>
   <v>       0.00000000      32.43285691       0.00000000 </v>
   <v>       0.00000000       0.00000000      32.43285691 </v>
  </varray>
  <energy>
   <i name="e_fr_energy">   -117.95015300 </i>
   <i name="e_wo_entrp">   -117.86262932 </i>
   <i name="e_0_energy">     -0.26257102 </i>
  </energy>
  <time name="totalsc">  336.86  131.00</time>
 </calculation>
 <calculation>
  <scstep>
   <time name="diag">    2.40    1.55</time>
   <time name="diis">   21.88    6.37</time>
   <time name="orth">    0.18    0.05</time>
   <time name="total">   27.83   11.09</time>
   <energy>
    <i name="alphaZ">     -6.44048679 </i>
    <i name="ewald">  -2343.61301581 </i>
    <i name="hartreedc">     -3.74675114 </i>
    <i name="XCdc">   -836.28072407 </i>
    <i name="pawpsdc">   1146.81034479 </i>
    <i name="pawaedc">   -124.90006429 </i>
    <i name="eentropy">     -0.26379505 </i>
    <i name="bandstr">    337.08418797 </i>
    <i name="atom">   1713.20396807 </i>
    <i name="e_fr_energy">   -118.14633631 </i>
    <i name="e_wo_entrp">   -117.88254126 </i>
    <i name="e_0_energy">   -118.05840463 </i>
   </energy>
  </scstep>
  <scstep>
   <time name="diag">    2.47    1.61</time>
   <time name="diis">   21.84    6.34</time>
   <time name="orth">    0.18    0.05</time>
   <time name="total">   27.71   11.11</time>
   <energy>
    <i name="e_fr_energy">   -118.13434024 </i>
    <i name="e_wo_entrp">   -117.87044512 </i>
    <i name="e_0_energy">   -118.04637520 </i>
   </energy>
  </scstep>
  <scstep>
   <time name="diag">    2.40    1.55</time>
   <time name="diis">   22.47    6.45</time>
   <time name="orth">    0.18    0.05</time>
   <time name="total">   28.35   11.25</time>
   <energy>
    <i name="e_fr_energy">   -118.12407704 </i>
    <i name="e_wo_entrp">   -117.86004762 </i>
    <i name="e_0_energy">   -118.03606724 </i>
   </energy>
  </scstep>
  <scstep>
   <time name="diag">    2.40    1.55</time>
   <time name="diis">   13.82    4.13</time>
   <time name="orth">    0.18    0.05</time>
   <time name="total">   18.34    7.61</time>
   <energy>
    <i name="alphaZ">     -6.44048679 </i>
    <i name="ewald">  -2343.61301581 </i>
    <i name="hartreedc">     -3.55671587 </i>
    <i name="XCdc">   -836.85362916 </i>
    <i name="pawpsdc">   1141.76739392 </i>
    <i name="pawaedc">   -119.59917362 </i>
    <i name="eentropy">     -0.26401968 </i>
    <i name="bandstr">    337.23158814 </i>
    <i name="atom">   1713.20396807 </i>
    <i name="e_fr_energy">   -118.12409081 </i>
    <i name="e_wo_entrp">   -117.86007113 </i>
    <i name="e_0_energy">   -118.03608425 </i>
   </energy>
  </scstep>
  <structure>
   <crystal>
    <varray name="basis" >
     <v>       8.11314030       0.00000000       0.00000000 </v>
     <v>       0.00000000       8.11314030       0.00000000 </v>
     <v>       0.00000000       0.00000000       8.11314030 </v>
    </varray>
    <i name="volume">    534.03160321 </i>
    <varray name="rec_basis" >
     <v>       0.12325684       0.00000000       0.00000000 </v>
     <v>       0.00000000       0.12325684       0.00000000 </v>
     <v>       0.00000000       0.00000000       0.12325684 </v>
    </varray>
   </crystal>
   <varray name="positions" >
    <v>       0.00000000       0.00000000       0.00000000 </v>
    <v>       0.25000000       0.00000000       0.25000000 </v>
    <v>       0.25000000       0.25000000       0.00000000 </v>
    <v>       0.00000000       0.25000000       0.25000000 </v>
    <v>       0.50000000       0.00000000       0.00000000 </v>
    <v>       0.75000000       0.00000000       0.25000000 </v>
    <v>       0.75000000       0.25000000       0.00000000 </v>
    <v>       0.50000000       0.25000000       0.25000000 </v>
    <v>       0.00000000       0.50000000       0.00000000 </v>
    <v>       0.25000000       0.50000000       0.25000000 </v>
    <v>       0.25000000       0.75000000       0.00000000 </v>
    <v>       0.00000000       0.75000000       0.25000000 </v>
    <v>       0.50000000       0.50000000       0.00000000 </v>
    <v>       0.75000000       0.50000000       0.25000000 </v>
    <v>       0.75000000       0.75000000       0.00000000 </v>
    <v>       0.50000000       0.75000000       0.25000000 </v>
    <v>       0.00000000       0.00000000       0.50000000 </v>
    <v>       0.25000000       0.00000000       0.75000000 </v>
    <v>       0.25000000       0.25000000       0.50000000 </v>
    <v>       0.00000000       0.25000000       0.75000000 </v>
    <v>       0.50000000       0.00000000       0.50000000 </v>
    <v>       0.75000000       0.00000000       0.75000000 </v>
    <v>       0.75000000       0.25000000       0.50000000 </v>
    <v>       0.50000000       0.25000000       0.75000000 </v>
    <v>       0.00000000       0.50000000       0.50000000 </v>
    <v>       0.25000000       0.50000000       0.75000000 </v>
    <v>       0.25000000       0.75000000       0.50000000 </v>
    <v>       0.00000000       0.75000000       0.75000000 </v>
    <v>       0.50000000       0.50000000       0.50000000 </v>
    <v>       0.75000000       0.50000000       0.75000000 </v>
    <v>       0.75000000       0.75000000       0.50000000 </v>
    <v>       0.50000000       0.75000000       0.75000000 </v>
   </varray>
  </structure>
  <varray name="forces" >
   <v>       0.00000000       0.00000000       0.00000000 </v>
   <v>       0.00000000       0.00000000       0.00000000 </v>
   <v>       0.00000000       0.00000000       0.00000000 </v>
   <v>       0.00000000       0.00000000       0.00000000 </v>
   <v>       0.00000000       0.00000000       0.00000000 </v>
   <v>       0.00000000       0.00000000       0.00000000 </v>
   <v>       0.00000000       0.00000000       0.00000000 </v>
   <v>       0.00000000       0.00000000       0.00000000 </v>
   <v>       0.00000000       0.00000000       0.00000000 </v>
   <v>       0.00000000       0.00000000       0.00000000 </v>
   <v>       0.00000000       0.00000000       0.00000000 </v>
   <v>       0.00000000       0.00000000       0.00000000 </v>
   <v>       0.00000000       0.00000000       0.00000000 </v>
   <v>       0.00000000       0.00000000       0.00000000 </v>
   <v>       0.00000000       0.00000000       0.00000000 </v>
   <v>       0.00000000       0.00000000       0.00000000 </v>
   <v>       0.00000000       0.00000000       0.00000000 </v>
   <v>       0.00000000       0.00000000       0.00000000 </v>
   <v>       0.00000000       0.00000000       0.00000000 </v>
   <v>       0.00000000       0.00000000       0.00000000 </v>
   <v>       0.00000000       0.00000000       0.00000000 </v>
   <v>       0.00000000       0.00000000       0.00000000 </v>
   <v>       0.00000000       0.00000000       0.00000000 </v>
   <v>       0.00000000       0.00000000       0.00000000 </v>
   <v>       0.00000000       0.00000000       0.00000000 </v>
   <v>       0.00000000       0.00000000       0.00000000 </v>
   <v>       0.00000000       0.00000000       0.00000000 </v>
   <v>       0.00000000       0.00000000       0.00000000 </v>
   <v>       0.00000000       0.00000000       0.00000000 </v>
   <v>       0.00000000       0.00000000       0.00000000 </v>
   <v>       0.00000000       0.00000000       0.00000000 </v>
   <v>       0.00000000       0.00000000       0.00000000 </v>
  </varray>
  <varray name="stress" >
   <v>      -7.57385009       0.00000000       0.00000000 </v>
   <v>       0.00000000      -7.57385009       0.00000000 </v>
   <v>       0.00000000       0.00000000      -7.57385009 </v>
  </varray>
  <energy>
   <i name="e_fr_energy">   -118.12409081 </i>
   <i name="e_wo_entrp">   -118.03608425 </i>
   <i name="e_0_energy">     -0.26401968 </i>
  </energy>
  <time name="totalsc">  136.09   58.67</time>
 </calculation>
 <calculation>
  <scstep>
   <time name="diag">    2.39    1.55</time>
   <time name="diis">   22.04    6.39</time>
   <time name="orth">    0.18    0.05</time>
   <time name="total">   27.98   11.10</time>
   <energy>
    <i name="alphaZ">     -6.50301236 </i>
    <i name="ewald">  -2351.17269684 </i>
    <i name="hartreedc">     -3.56250680 </i>
    <i name="XCdc">   -836.36399511 </i>
    <i name="pawpsdc">   1141.85903333 </i>
    <i name="pawaedc">   -119.68916757 </i>
    <i name="eentropy">     -0.26347894 </i>
    <i name="bandstr">    344.35454948 </i>
    <i name="atom">   1713.20396807 </i>
    <i name="e_fr_energy">   -118.13730673 </i>
    <i name="e_wo_entrp">   -117.87382779 </i>
    <i name="e_0_energy">   -118.04948042 </i>
   </energy>
  </scstep>
  <scstep>
   <time name="diag">    2.40    1.55</time>
   <time name="diis">   18.85    5.37</time>
   <time name="orth">    0.18    0.05</time>
   <time name="total">   24.74   10.17</time>
   <energy>
    <i name="e_fr_energy">   -118.13680037 </i>
    <i name="e_wo_entrp">   -117.87333386 </i>
    <i name="e_0_energy">   -118.04897820 </i>
   </energy>
  </scstep>
  <scstep>
   <time name="diag">    2.40    1.55</time>
   <time name="diis">   13.83    4.17</time>
   <time name="orth">    0.18    0.05</time>
   <time name="total">   19.64    8.89</time>
   <energy>
    <i name="e_fr_energy">   -118.13639436 </i>
    <i name="e_wo_entrp">   -117.87295042 </i>
    <i name="e_0_energy">   -118.04857971 </i>
   </energy>
  </scstep>
  <scstep>
   <time name="diag">    2.40    1.55</time>
   <time name="diis">   12.38    3.76</time>
   <time name="orth">    0.18    0.05</time>
   <time name="total">   16.88    7.22</time>
   <energy>
    <i name="alphaZ">     -6.50301236 </i>
    <i name="ewald">  -2351.17269684 </i>
    <i name="hartreedc">     -3.59392712 </i>
    <i name="XCdc">   -836.24286007 </i>
    <i name="pawpsdc">   1142.89031173 </i>
    <i name="pawaedc">   -120.77096302 </i>
    <i name="eentropy">     -0.26344554 </i>
    <i name="bandstr">    344.31622876 </i>
    <i name="atom">   1713.20396807 </i>
    <i name="e_fr_energy">   -118.13639638 </i>
    <i name="e_wo_entrp">   -117.87295085 </i>
    <i name="e_0_energy">   -118.04858121 </i>
   </energy>
  </scstep>
  <structure>
   <crystal>
    <varray name="basis" >
     <v>       8.08705427       0.00000000       0.00000000 </v>
     <v>       0.00000000       8.08705427       0.00000000 </v>
     <v>       0.00000000       0.00000000       8.08705427 </v>
    </varray>
    <i name="volume">    528.89696288 </i>
    <varray name="rec_basis" >
     <v>       0.12365442       0.00000000       0.00000000 </v>
     <v>       0.00000000       0.12365442       0.00000000 </v>
     <v>       0.00000000       0.00000000       0.12365442 </v>
    </varray>
   </crystal>
   <varray name="positions" >
    <v>       0.00000000       0.00000000       0.00000000 </v>
    <v>       0.25000000       0.00000000       0.25000000 </v>
    <v>       0.25000000       0.25000000       0.00000000 </v>
    <v>       0.00000000       0.25000000       0.25000000 </v>
    <v>       0.50000000       0.00000000       0.00000000 </v>
    <v>       0.75000000       0.00000000       0.25000000 </v>
    <v>       0.75000000       0.25000000       0.00000000 </v>
    <v>       0.50000000       0.25000000       0.25000000 </v>
    <v>       0.00000000       0.50000000       0.00000000 </v>
    <v>       0.25000000       0.50000000       0.25000000 </v>
    <v>       0.25000000       0.75000000       0.00000000 </v>
    <v>       0.00000000       0.75000000       0.25000000 </v>
    <v>       0.50000000       0.50000000       0.00000000 </v>
    <v>       0.75000000       0.50000000       0.25000000 </v>
    <v>       0.75000000       0.75000000       0.00000000 </v>
    <v>       0.50000000       0.75000000       0.25000000 </v>
    <v>       0.00000000       0.00000000       0.50000000 </v>
    <v>       0.25000000       0.00000000       0.75000000 </v>
    <v>       0.25000000       0.25000000       0.50000000 </v>
    <v>       0.00000000       0.25000000       0.75000000 </v>
    <v>       0.50000000       0.00000000       0.50000000 </v>
    <v>       0.75000000       0.00000000       0.75000000 </v>
    <v>       0.75000000       0.25000000       0.50000000 </v>
    <v>       0.50000000       0.25000000       0.75000000 </v>
    <v>       0.00000000       0.50000000       0.50000000 </v>
    <v>       0.25000000       0.50000000       0.75000000 </v>
    <v>       0.25000000       0.75000000       0.50000000 </v>
    <v>       0.00000000       0.75000000       0.75000000 </v>
    <v>       0.50000000       0.50000000       0.50000000 </v>
    <v>       0.75000000       0.50000000       0.75000000 </v>
    <v>       0.75000000       0.75000000       0.50000000 </v>
    <v>       0.50000000       0.75000000       0.75000000 </v>
   </varray>
  </structure>
  <varray name="forces" >
   <v>       0.00000000       0.00000000       0.00000000 </v>
   <v>       0.00000000       0.00000000       0.00000000 </v>
   <v>       0.00000000       0.00000000       0.00000000 </v>
   <v>       0.00000000       0.00000000       0.00000000 </v>
   <v>       0.00000000       0.00000000       0.00000000 </v>
   <v>       0.00000000       0.00000000       0.00000000 </v>
   <v>       0.00000000       0.00000000       0.00000000 </v>
   <v>       0.00000000       0.00000000       0.00000000 </v>
   <v>       0.00000000       0.00000000       0.00000000 </v>
   <v>       0.00000000       0.00000000       0.00000000 </v>
   <v>       0.00000000       0.00000000       0.00000000 </v>
   <v>       0.00000000       0.00000000       0.00000000 </v>
   <v>       0.00000000       0.00000000       0.00000000 </v>
   <v>       0.00000000       0.00000000       0.00000000 </v>
   <v>       0.00000000       0.00000000       0.00000000 </v>
   <v>       0.00000000       0.00000000       0.00000000 </v>
   <v>       0.00000000       0.00000000       0.00000000 </v>
   <v>       0.00000000       0.00000000       0.00000000 </v>
   <v>       0.00000000       0.00000000       0.00000000 </v>
   <v>       0.00000000       0.00000000       0.00000000 </v>
   <v>       0.00000000       0.00000000       0.00000000 </v>
   <v>       0.00000000       0.00000000       0.00000000 </v>
   <v>       0.00000000       0.00000000       0.00000000 </v>
   <v>       0.00000000       0.00000000       0.00000000 </v>
   <v>       0.00000000       0.00000000       0.00000000 </v>
   <v>       0.00000000       0.00000000       0.00000000 </v>
   <v>       0.00000000       0.00000000       0.00000000 </v>
   <v>       0.00000000       0.00000000       0.00000000 </v>
   <v>       0.00000000       0.00000000       0.00000000 </v>
   <v>       0.00000000       0.00000000       0.00000000 </v>
   <v>       0.00000000       0.00000000       0.00000000 </v>
   <v>       0.00000000       0.00000000       0.00000000 </v>
  </varray>
  <varray name="stress" >
   <v>       0.02372537       0.00000000       0.00000000 </v>
   <v>       0.00000000       0.02372537       0.00000000 </v>
   <v>       0.00000000       0.00000000       0.02372537 </v>
  </varray>
  <energy>
   <i name="e_fr_energy">   -118.13639638 </i>
   <i name="e_wo_entrp">   -118.04858121 </i>
   <i name="e_0_energy">     -0.26344554 </i>
  </energy>
  <time name="totalsc">  120.12   53.73</time>
  <eigenvalues>
   <array>
    <dimension dim="1">band</dimension>
    <dimension dim="2">kpoint</dimension>
    <dimension dim="3">spin</dimension>
    <field>eigene</field>
    <field>occ</field>
    <set>
     <set comment="spin 1">
      <set comment="kpoint 1">
       <r>   -2.7133    1.0000 </r>
       <r>   -1.5892    1.0000 </r>
       <r>   -1.5892    1.0000 </r>
       <r>   -1.5892    1.0000 </r>
       <r>   -0.4737    1.0000 </r>
       <r>   -0.4737    1.0000 </r>
       <r>   -0.4737    1.0000 </r>
       <r>    0.6318    1.0000 </r>
       <r>    0.6318    1.0000 </r>
       <r>    0.6318    1.0000 </r>
       <r>    0.6332    1.0000 </r>
       <r>    1.7300    1.0000 </r>
       <r>    1.7300    1.0000 </r>
       <r>    1.7300    1.0000 </r>
       <r>    1.7300    1.0000 </r>
       <r>    1.7300    1.0000 </r>
       <r>    1.7300    1.0000 </r>
       <r>    2.8187    1.0000 </r>
       <r>    2.8187    1.0000 </r>
       <r>    2.8187    1.0000 </r>
       <r>    3.8624    1.0000 </r>
       <r>    3.8624    1.0000 </r>
       <r>    3.8624    1.0000 </r>
       <r>    3.8971    1.0000 </r>
       <r>    3.8971    1.0000 </r>
       <r>    3.8971    1.0000 </r>
       <r>    4.9287    1.0000 </r>
       <r>    4.9287    1.0000 </r>
       <r>    4.9287    1.0000 </r>
       <r>    4.9287    1.0000 </r>
       <r>    4.9287    1.0000 </r>
       <r>    4.9287    1.0000 </r>
       <r>    4.9914    1.0000 </r>
       <r>    4.9914    1.0000 </r>
       <r>    4.9914    1.0000 </r>
       <r>    6.0133    1.0000 </r>
       <r>    6.0133    1.0000 </r>
       <r>    6.0133    1.0000 </r>
       <r>    7.0602    1.0000 </r>
       <r>    7.0602    1.0000 </r>
       <r>    7.0602    1.0000 </r>
       <r>    7.0602    1.0000 </r>
       <r>    7.0602    1.0000 </r>
       <r>    7.0602    1.0000 </r>
       <r>    7.1225    1.0000 </r>
       <r>    8.1239    0.5174 </r>
       <r>    8.1239    0.5174 </r>
       <r>    8.1239    0.5174 </r>
       <r>    8.1239    0.5174 </r>
       <r>    8.1239    0.5174 </r>
       <r>    8.1239    0.5174 </r>
       <r>    8.3607   -0.0348 </r>
       <r>    8.3607   -0.0348 </r>
       <r>    8.3607   -0.0348 </r>
       <r>    9.4452    0.0000 </r>
       <r>    9.4452    0.0000 </r>
       <r>    9.4452    0.0000 </r>
       <r>    9.4452    0.0000 </r>
       <r>    9.4452    0.0000 </r>
       <r>    9.4452    0.0000 </r>
       <r>   10.2010    0.0000 </r>
       <r>   10.2039    0.0000 </r>
       <r>   10.2139    0.0000 </r>
       <r>   10.2236    0.0000 </r>
       <r>   10.2276    0.0000 </r>
      </set>
     </set>
    </set>
   </array>
  </eigenvalues>
  <separator name="orbital magnetization" >
   <v name="MAGDIPOLOUT">      0.00000000      0.00000000      0.00000000</v>
  </separator>
  <dos>
   <i name="efermi">      8.12799948 </i>
   <total>
    <array>
     <dimension dim="1">gridpoints</dimension>
     <dimension dim="2">spin</dimension>
     <field>energy</field>
     <field>total</field>
     <field>integrated</field>
     <set>
      <set comment="spin 1">
       <r>  -4.7133   0.0000   0.0000 </r>
       <r>  -4.6568   0.0000   0.0000 </r>
       <r>  -4.6003   0.0000   0.0000 </r>
       <r>  -4.5438   0.0000   0.0000 </r>
       <r>  -4.4874   0.0000   0.0000 </r>
       <r>  -4.4309   0.0000   0.0000 </r>
       <r>  -4.3744   0.0000   0.0000 </r>
       <r>  -4.3180   0.0000   0.0000 </r>
       <r>  -4.2615   0.0000   0.0000 </r>
       <r>  -4.2050   0.0000   0.0000 </r>
       <r>  -4.1486   0.0000   0.0000 </r>
       <r>  -4.0921   0.0000   0.0000 </r>
       <r>  -4.0356   0.0000   0.0000 </r>
       <r>  -3.9791   0.0000   0.0000 </r>
       <r>  -3.9227   0.0000   0.0000 </r>
       <r>  -3.8662   0.0000   0.0000 </r>
       <r>  -3.8097   0.0000   0.0000 </r>
       <r>  -3.7533   0.0000   0.0000 </r>
       <r>  -3.6968   0.0000   0.0000 </r>
       <r>  -3.6403   0.0000   0.0000 </r>
       <r>  -3.5839   0.0000   0.0000 </r>
       <r>  -3.5274   0.0000   0.0000 </r>
       <r>  -3.4709   0.0000   0.0000 </r>
       <r>  -3.4145  -0.0001   0.0000 </r>
       <r>  -3.3580  -0.0007  -0.0001 </r>
       <r>  -3.3015  -0.0037  -0.0003 </r>
       <r>  -3.2450  -0.0150  -0.0011 </r>
       <r>  -3.1886  -0.0503  -0.0039 </r>
       <r>  -3.1321  -0.1364  -0.0117 </r>
       <r>  -3.0756  -0.2887  -0.0280 </r>
       <r>  -3.0192  -0.4370  -0.0526 </r>
       <r>  -2.9627  -0.3211  -0.0708 </r>
       <r>  -2.9062   0.5062  -0.0422 </r>
       <r>  -2.8498   2.3892   0.0927 </r>
       <r>  -2.7933   5.0702   0.3790 </r>
       <r>  -2.7368   7.4911   0.8021 </r>
       <r>  -2.6804   8.3625   1.2743 </r>
       <r>  -2.6239   7.1677   1.6790 </r>
       <r>  -2.5674   4.6089   1.9393 </r>
       <r>  -2.5109   2.0057   2.0526 </r>
       <r>  -2.4545   0.3012   2.0696 </r>
       <r>  -2.3980  -0.3762   2.0483 </r>
       <r>  -2.3415  -0.4209   2.0246 </r>
       <r>  -2.2851  -0.2606   2.0098 </r>
       <r>  -2.2286  -0.1202   2.0031 </r>
       <r>  -2.1721  -0.0545   2.0000 </r>
       <r>  -2.1157  -0.0629   1.9964 </r>
       <r>  -2.0592  -0.1703   1.9868 </r>
       <r>  -2.0027  -0.4448   1.9617 </r>
       <r>  -1.9462  -0.9156   1.9100 </r>
       <r>  -1.8898  -1.3299   1.8349 </r>
       <r>  -1.8333  -0.8434   1.7873 </r>
       <r>  -1.7768   1.9096   1.8951 </r>
       <r>  -1.7204   7.8560   2.3387 </r>
       <r>  -1.6639  15.9918   3.2418 </r>
       <r>  -1.6074  22.9677   4.5387 </r>
       <r>  -1.5510  25.0074   5.9509 </r>
       <r>  -1.4945  20.8973   7.1310 </r>
       <r>  -1.4380  13.0366   7.8671 </r>
       <r>  -1.3816   5.3966   8.1719 </r>
       <r>  -1.3251   0.5926   8.2053 </r>
       <r>  -1.2686  -1.1993   8.1376 </r>
       <r>  -1.2121  -1.2280   8.0683 </r>
       <r>  -1.1557  -0.7333   8.0269 </r>
       <r>  -1.0992  -0.3270   8.0084 </r>
       <r>  -1.0427  -0.1307   8.0010 </r>
       <r>  -0.9863  -0.1013   7.9953 </r>
       <r>  -0.9298  -0.2248   7.9826 </r>
       <r>  -0.8733  -0.5460   7.9518 </r>
       <r>  -0.8169  -1.0437   7.8928 </r>
       <r>  -0.7604  -1.3413   7.8171 </r>
       <r>  -0.7039  -0.4304   7.7928 </r>
       <r>  -0.6475   3.0732   7.9663 </r>
       <r>  -0.5910   9.7514   8.5170 </r>
       <r>  -0.5345  17.9789   9.5322 </r>
       <r>  -0.4780  24.0373  10.8896 </r>
       <r>  -0.4216  24.5286  12.2747 </r>
       <r>  -0.3651  19.1588  13.3566 </r>
       <r>  -0.3086  10.9940  13.9774 </r>
       <r>  -0.2522   3.9052  14.1980 </r>
       <r>  -0.1957  -0.0915  14.1928 </r>
       <r>  -0.1392  -1.3137  14.1186 </r>
       <r>  -0.0828  -1.1201  14.0554 </r>
       <r>  -0.0263  -0.6156  14.0206 </r>
       <r>   0.0302  -0.2644  14.0057 </r>
       <r>   0.0867  -0.1274  13.9985 </r>
       <r>   0.1431  -0.1755  13.9886 </r>
       <r>   0.1996  -0.4424  13.9636 </r>
       <r>   0.2561  -0.9886  13.9078 </r>
       <r>   0.3125  -1.6457  13.8148 </r>
       <r>   0.3690  -1.5842  13.7254 </r>
       <r>   0.4255   0.8591  13.7739 </r>
       <r>   0.4819   7.3356  14.1881 </r>
       <r>   0.5384  17.5632  15.1799 </r>
       <r>   0.5949  28.0052  16.7613 </r>
       <r>   0.6513  33.3666  18.6455 </r>
       <r>   0.7078  30.5139  20.3686 </r>
       <r>   0.7643  21.1438  21.5626 </r>
       <r>   0.8208  10.3147  22.1451 </r>
       <r>   0.8772   2.4539  22.2837 </r>
       <r>   0.9337  -1.1538  22.2185 </r>
       <r>   0.9902  -1.7697  22.1186 </r>
       <r>   1.0466  -1.2107  22.0502 </r>
       <r>   1.1031  -0.5917  22.0168 </r>
       <r>   1.1596  -0.2545  22.0024 </r>
       <r>   1.2160  -0.2013  21.9910 </r>
       <r>   1.2725  -0.4405  21.9662 </r>
       <r>   1.3290  -1.0716  21.9057 </r>
       <r>   1.3854  -2.0628  21.7892 </r>
       <r>   1.4419  -2.6860  21.6375 </r>
       <r>   1.4984  -0.9559  21.5835 </r>
       <r>   1.5549   5.8986  21.9166 </r>
       <r>   1.6113  19.1180  22.9962 </r>
       <r>   1.6678  35.5754  25.0051 </r>
       <r>   1.7243  47.8940  27.7097 </r>
       <r>   1.7807  49.1857  30.4871 </r>
       <r>   1.8372  38.6781  32.6713 </r>
       <r>   1.8937  22.3858  33.9354 </r>
       <r>   1.9501   8.0873  34.3921 </r>
       <r>   2.0066  -0.0641  34.3885 </r>
       <r>   2.0631  -2.6130  34.2409 </r>
       <r>   2.1196  -2.2630  34.1131 </r>
       <r>   2.1760  -1.2522  34.0424 </r>
       <r>   2.2325  -0.5327  34.0123 </r>
       <r>   2.2890  -0.2202  33.9999 </r>
       <r>   2.3454  -0.2041  33.9884 </r>
       <r>   2.4019  -0.4333  33.9639 </r>
       <r>   2.4584  -0.8874  33.9138 </r>
       <r>   2.5148  -1.3195  33.8393 </r>
       <r>   2.5713  -0.9187  33.7874 </r>
       <r>   2.6278   1.6684  33.8816 </r>
       <r>   2.6842   7.4349  34.3014 </r>
       <r>   2.7407  15.5178  35.1777 </r>
       <r>   2.7972  22.6724  36.4580 </r>
       <r>   2.8537  25.0629  37.8733 </r>
       <r>   2.9101  21.2700  39.0744 </r>
       <r>   2.9666  13.5166  39.8377 </r>
       <r>   3.0231   5.7706  40.1636 </r>
       <r>   3.0795   0.7783  40.2075 </r>
       <r>   3.1360  -1.1585  40.1421 </r>
       <r>   3.1925  -1.2509  40.0714 </r>
       <r>   3.2489  -0.7690  40.0280 </r>
       <r>   3.3054  -0.3755  40.0068 </r>
       <r>   3.3619  -0.2520  39.9926 </r>
       <r>   3.4183  -0.4453  39.9674 </r>
       <r>   3.4748  -1.0373  39.9089 </r>
       <r>   3.5313  -1.9835  39.7969 </r>
       <r>   3.5878  -2.5899  39.6506 </r>
       <r>   3.6442  -0.9734  39.5956 </r>
       <r>   3.7007   5.5295  39.9079 </r>
       <r>   3.7572  18.2174  40.9366 </r>
       <r>   3.8136  34.2987  42.8734 </r>
       <r>   3.8701  46.8094  45.5167 </r>
       <r>   3.9266  48.9178  48.2791 </r>
       <r>   3.9830  39.3833  50.5031 </r>
       <r>   4.0395  23.6198  51.8369 </r>
       <r>   4.0960   9.2057  52.3567 </r>
       <r>   4.1525   0.5759  52.3892 </r>
       <r>   4.2089  -2.4187  52.2526 </r>
       <r>   4.2654  -2.2981  52.1229 </r>
       <r>   4.3219  -1.3453  52.0469 </r>
       <r>   4.3783  -0.6408  52.0107 </r>
       <r>   4.4348  -0.4313  51.9864 </r>
       <r>   4.4913  -0.7518  51.9439 </r>
       <r>   4.5477  -1.6811  51.8490 </r>
       <r>   4.6042  -3.0468  51.6769 </r>
       <r>   4.6607  -3.6335  51.4717 </r>
       <r>   4.7171  -0.5279  51.4419 </r>
       <r>   4.7736   9.9925  52.0062 </r>
       <r>   4.8301  29.2059  53.6554 </r>
       <r>   4.8866  52.4011  56.6145 </r>
       <r>   4.9430  69.4720  60.5375 </r>
       <r>   4.9995  71.2986  64.5637 </r>
       <r>   5.0560  56.9001  67.7768 </r>
       <r>   5.1124  34.2023  69.7082 </r>
       <r>   5.1689  13.6584  70.4795 </r>
       <r>   5.2254   1.2539  70.5503 </r>
       <r>   5.2818  -3.2351  70.3676 </r>
       <r>   5.3383  -3.2488  70.1842 </r>
       <r>   5.3948  -1.9564  70.0737 </r>
       <r>   5.4512  -0.8988  70.0230 </r>
       <r>   5.5077  -0.3951  70.0006 </r>
       <r>   5.5642  -0.3390  69.9815 </r>
       <r>   5.6207  -0.6225  69.9463 </r>
       <r>   5.6771  -1.1101  69.8837 </r>
       <r>   5.7336  -1.3221  69.8090 </r>
       <r>   5.7901  -0.1613  69.7999 </r>
       <r>   5.8465   3.7405  70.0111 </r>
       <r>   5.9030  10.7544  70.6184 </r>
       <r>   5.9595  18.9386  71.6879 </r>
       <r>   6.0159  24.4460  73.0683 </r>
       <r>   6.0724  24.1420  74.4316 </r>
       <r>   6.1289  18.2083  75.4598 </r>
       <r>   6.1854   9.9854  76.0237 </r>
       <r>   6.2418   3.2257  76.2058 </r>
       <r>   6.2983  -0.3709  76.1849 </r>
       <r>   6.3548  -1.3390  76.1093 </r>
       <r>   6.4112  -1.0624  76.0493 </r>
       <r>   6.4677  -0.5776  76.0167 </r>
       <r>   6.5242  -0.3084  75.9993 </r>
       <r>   6.5806  -0.3615  75.9788 </r>
       <r>   6.6371  -0.8254  75.9322 </r>
       <r>   6.6936  -1.7733  75.8321 </r>
       <r>   6.7500  -2.8405  75.6717 </r>
       <r>   6.8065  -2.5113  75.5299 </r>
       <r>   6.8630   2.0717  75.6469 </r>
       <r>   6.9195  13.5482  76.4119 </r>
       <r>   6.9759  31.1310  78.1699 </r>
       <r>   7.0324  48.6596  80.9177 </r>
       <r>   7.0889  57.3584  84.1567 </r>
       <r>   7.1453  52.2856  87.1092 </r>
       <r>   7.2018  36.4391  89.1669 </r>
       <r>   7.2583  18.1773  90.1934 </r>
       <r>   7.3147   4.7704  90.4627 </r>
       <r>   7.3712  -1.5952  90.3727 </r>
       <r>   7.4277  -2.8904  90.2094 </r>
       <r>   7.4841  -2.0819  90.0919 </r>
       <r>   7.5406  -1.0720  90.0313 </r>
       <r>   7.5971  -0.5124  90.0024 </r>
       <r>   7.6536  -0.4642  89.9762 </r>
       <r>   7.7100  -0.9206  89.9242 </r>
       <r>   7.7665  -1.8421  89.8202 </r>
       <r>   7.8230  -2.6985  89.6678 </r>
       <r>   7.8794  -1.8368  89.5641 </r>
       <r>   7.9359   3.3979  89.7559 </r>
       <r>   7.9924  14.8166  90.5926 </r>
       <r>   8.0488  30.6081  92.3211 </r>
       <r>   8.1053  44.8039  94.8511 </r>
       <r>   8.1618  51.1458  97.7393 </r>
       <r>   8.2183  48.2983 100.4667 </r>
       <r>   8.2747  40.5014 102.7537 </r>
       <r>   8.3312  32.7385 104.6025 </r>
       <r>   8.3877  26.3291 106.0893 </r>
       <r>   8.4441  19.7422 107.2041 </r>
       <r>   8.5006  12.2455 107.8956 </r>
       <r>   8.5571   5.2674 108.1930 </r>
       <r>   8.6135   0.6339 108.2288 </r>
       <r>   8.6700  -1.2568 108.1579 </r>
       <r>   8.7265  -1.3599 108.0811 </r>
       <r>   8.7829  -0.8521 108.0329 </r>
       <r>   8.8394  -0.4045 108.0101 </r>
       <r>   8.8959  -0.2010 107.9988 </r>
       <r>   8.9524  -0.2534 107.9844 </r>
       <r>   9.0088  -0.6252 107.9491 </r>
       <r>   9.0653  -1.4156 107.8692 </r>
       <r>   9.1218  -2.4144 107.7329 </r>
       <r>   9.1782  -2.4627 107.5938 </r>
       <r>   9.2347   0.8672 107.6428 </r>
       <r>   9.2912  10.1346 108.2151 </r>
       <r>   9.3476  25.2074 109.6385 </r>
       <r>   9.4041  41.0991 111.9593 </r>
       <r>   9.4606  49.8778 114.7759 </r>
       <r>   9.5170  46.4391 117.3983 </r>
       <r>   9.5735  32.8297 119.2522 </r>
       <r>   9.6300  16.4653 120.1820 </r>
       <r>   9.6865   4.1893 120.4185 </r>
       <r>   9.7429  -1.8157 120.3160 </r>
       <r>   9.7994  -3.4089 120.1235 </r>
       <r>   9.8559  -3.3946 119.9318 </r>
       <r>   9.9123  -3.1160 119.7559 </r>
       <r>   9.9688  -1.7382 119.6577 </r>
       <r>  10.0253   3.0342 119.8290 </r>
       <r>  10.0817  12.9012 120.5576 </r>
       <r>  10.1382  26.3559 122.0459 </r>
       <r>  10.1947  37.9718 124.1901 </r>
       <r>  10.2512  41.5277 126.5352 </r>
       <r>  10.3076  34.9242 128.5073 </r>
       <r>  10.3641  22.0014 129.7497 </r>
       <r>  10.4206   9.2866 130.2741 </r>
       <r>  10.4770   1.1788 130.3407 </r>
       <r>  10.5335  -1.9261 130.2319 </r>
       <r>  10.5900  -2.0448 130.1165 </r>
       <r>  10.6464  -1.2403 130.0464 </r>
       <r>  10.7029  -0.5542 130.0151 </r>
       <r>  10.7594  -0.1954 130.0041 </r>
       <r>  10.8158  -0.0560 130.0009 </r>
       <r>  10.8723  -0.0132 130.0002 </r>
       <r>  10.9288  -0.0026 130.0000 </r>
       <r>  10.9853  -0.0004 130.0000 </r>
       <r>  11.0417  -0.0001 130.0000 </r>
       <r>  11.0982   0.0000 130.0000 </r>
       <r>  11.1547   0.0000 130.0000 </r>
       <r>  11.2111   0.0000 130.0000 </r>
       <r>  11.2676   0.0000 130.0000 </r>
       <r>  11.3241   0.0000 130.0000 </r>
       <r>  11.3805   0.0000 130.0000 </r>
       <r>  11.4370   0.0000 130.0000 </r>
       <r>  11.4935   0.0000 130.0000 </r>
       <r>  11.5499   0.0000 130.0000 </r>
       <r>  11.6064   0.0000 130.0000 </r>
       <r>  11.6629   0.0000 130.0000 </r>
       <r>  11.7194   0.0000 130.0000 </r>
       <r>  11.7758   0.0000 130.0000 </r>
       <r>  11.8323   0.0000 130.0000 </r>
       <r>  11.8888   0.0000 130.0000 </r>
       <r>  11.9452   0.0000 130.0000 </r>
       <r>  12.0017   0.0000 130.0000 </r>
       <r>  12.0582   0.0000 130.0000 </r>
       <r>  12.1146   0.0000 130.0000 </r>
       <r>  12.1711   0.0000 130.0000 </r>
       <r>  12.2276   0.0000 130.0000 </r>
      </set>
     </set>
    </array>
   </total>
  </dos>
 </calculation>
 <structure name="finalpos" >
  <crystal>
   <varray name="basis" >
    <v>       8.08705427       0.00000000       0.00000000 </v>
    <v>       0.00000000       8.08705427       0.00000000 </v>
    <v>       0.00000000       0.00000000       8.08705427 </v>
   </varray>
   <i name="volume">    528.89696288 </i>
   <varray name="rec_basis" >
    <v>       0.12365442       0.00000000       0.00000000 </v>
    <v>       0.00000000       0.12365442       0.00000000 </v>
    <v>       0.00000000       0.00000000       0.12365442 </v>
   </varray>
  </crystal>
  <varray name="positions" >
   <v>       0.00000000       0.00000000       0.00000000 </v>
   <v>       0.25000000       0.00000000       0.25000000 </v>
   <v>       0.25000000       0.25000000       0.00000000 </v>
   <v>       0.00000000       0.25000000       0.25000000 </v>
   <v>       0.50000000       0.00000000       0.00000000 </v>
   <v>       0.75000000       0.00000000       0.25000000 </v>
   <v>       0.75000000       0.25000000       0.00000000 </v>
   <v>       0.50000000       0.25000000       0.25000000 </v>
   <v>       0.00000000       0.50000000       0.00000000 </v>
   <v>       0.25000000       0.50000000       0.25000000 </v>
   <v>       0.25000000       0.75000000       0.00000000 </v>
   <v>       0.00000000       0.75000000       0.25000000 </v>
   <v>       0.50000000       0.50000000       0.00000000 </v>
   <v>       0.75000000       0.50000000       0.25000000 </v>
   <v>       0.75000000       0.75000000       0.00000000 </v>
   <v>       0.50000000       0.75000000       0.25000000 </v>
   <v>       0.00000000       0.00000000       0.50000000 </v>
   <v>       0.25000000       0.00000000       0.75000000 </v>
   <v>       0.25000000       0.25000000       0.50000000 </v>
   <v>       0.00000000       0.25000000       0.75000000 </v>
   <v>       0.50000000       0.00000000       0.50000000 </v>
   <v>       0.75000000       0.00000000       0.75000000 </v>
   <v>       0.75000000       0.25000000       0.50000000 </v>
   <v>       0.50000000       0.25000000       0.75000000 </v>
   <v>       0.00000000       0.50000000       0.50000000 </v>
   <v>       0.25000000       0.50000000       0.75000000 </v>
   <v>       0.25000000       0.75000000       0.50000000 </v>
   <v>       0.00000000       0.75000000       0.75000000 </v>
   <v>       0.50000000       0.50000000       0.50000000 </v>
   <v>       0.75000000       0.50000000       0.75000000 </v>
   <v>       0.75000000       0.75000000       0.50000000 </v>
   <v>       0.50000000       0.75000000       0.75000000 </v>
  </varray>
 </structure>
</modeling>
