   4   4   0   0
  0.1706784E+02  0.4087078E-09  0.4087078E-09  0.4087078E-09  0.5000000E-15
  1.000000000000000E-004
  CAR 
 unknown system                          
     13.18746115     -3.62312075  301      6.92118073      1.00000000
     -3.623  0.0000E+00  0.0000E+00
     -3.567  0.0000E+00  0.0000E+00
     -3.511  0.0000E+00  0.0000E+00
     -3.455  0.0000E+00  0.0000E+00
     -3.399  0.0000E+00  0.0000E+00
     -3.343  0.0000E+00  0.0000E+00
     -3.287  0.0000E+00  0.0000E+00
     -3.231 -0.6971E-26 -0.3906E-27
     -3.175 -0.5555E-24 -0.3152E-25
     -3.119 -0.3818E-22 -0.2171E-23
     -3.063 -0.2238E-20 -0.1276E-21
     -3.007 -0.1120E-18 -0.6401E-20
     -2.951 -0.4776E-17 -0.2740E-18
     -2.895 -0.1737E-15 -0.1001E-16
     -2.839 -0.5386E-14 -0.3118E-15
     -2.783 -0.1383E-12 -0.8063E-14
     -2.727 -0.3097E-11 -0.1816E-12
     -2.671 -0.5916E-10 -0.3496E-11
     -2.614 -0.9604E-09 -0.5732E-10
     -2.558 -0.1325E-07 -0.7998E-09
     -2.502 -0.1552E-06 -0.9496E-08
     -2.446 -0.1541E-05 -0.9585E-07
     -2.390 -0.1295E-04 -0.8217E-06
     -2.334 -0.9198E-04 -0.5976E-05
     -2.278 -0.5501E-03 -0.3680E-04
     -2.222 -0.2760E-02 -0.1914E-03
     -2.166 -0.1155E-01 -0.8387E-03
     -2.110 -0.3996E-01 -0.3078E-02
     -2.054 -0.1126E+00 -0.9386E-02
     -1.998 -0.2509E+00 -0.2345E-01
     -1.942 -0.4136E+00 -0.4662E-01
     -1.886 -0.3944E+00 -0.6872E-01
     -1.830  0.2151E+00 -0.5667E-01
     -1.774  0.1819E+01  0.4524E-01
     -1.718  0.4351E+01  0.2890E+00
     -1.662  0.6954E+01  0.6787E+00
     -1.606  0.8332E+01  0.1146E+01
     -1.550  0.7692E+01  0.1577E+01
     -1.494  0.5410E+01  0.1880E+01
     -1.438  0.2709E+01  0.2032E+01
     -1.382  0.7006E+00  0.2071E+01
     -1.326 -0.2567E+00  0.2056E+01
     -1.270 -0.4462E+00  0.2031E+01
     -1.214 -0.3170E+00  0.2014E+01
     -1.158 -0.1578E+00  0.2005E+01
     -1.102 -0.6099E-01  0.2001E+01
     -1.045 -0.1903E-01  0.2000E+01
     -0.989 -0.4885E-02  0.2000E+01
     -0.933 -0.1043E-02  0.2000E+01
     -0.877 -0.1864E-03  0.2000E+01
     -0.821 -0.2803E-04  0.2000E+01
     -0.765 -0.3557E-05  0.2000E+01
     -0.709 -0.3818E-06  0.2000E+01
     -0.653 -0.3472E-07  0.2000E+01
     -0.597 -0.2680E-08  0.2000E+01
     -0.541 -0.1757E-09  0.2000E+01
     -0.485 -0.9788E-11  0.2000E+01
     -0.429 -0.4597E-12  0.2000E+01
     -0.373 -0.2378E-13  0.2000E+01
     -0.317  0.0000E+00  0.2000E+01
     -0.261  0.0000E+00  0.2000E+01
     -0.205  0.0000E+00  0.2000E+01
     -0.149  0.0000E+00  0.2000E+01
     -0.093  0.0000E+00  0.2000E+01
     -0.037  0.0000E+00  0.2000E+01
      0.019  0.0000E+00  0.2000E+01
      0.075  0.0000E+00  0.2000E+01
      0.131  0.0000E+00  0.2000E+01
      0.187  0.0000E+00  0.2000E+01
      0.243  0.0000E+00  0.2000E+01
      0.299  0.0000E+00  0.2000E+01
      0.355  0.0000E+00  0.2000E+01
      0.411  0.0000E+00  0.2000E+01
      0.467  0.0000E+00  0.2000E+01
      0.523  0.0000E+00  0.2000E+01
      0.580  0.0000E+00  0.2000E+01
      0.636  0.0000E+00  0.2000E+01
      0.692  0.0000E+00  0.2000E+01
      0.748  0.0000E+00  0.2000E+01
      0.804  0.0000E+00  0.2000E+01
      0.860  0.0000E+00  0.2000E+01
      0.916  0.0000E+00  0.2000E+01
      0.972  0.0000E+00  0.2000E+01
      1.028  0.0000E+00  0.2000E+01
      1.084 -0.3490E-25  0.2000E+01
      1.140 -0.2730E-23  0.2000E+01
      1.196 -0.1843E-21  0.2000E+01
      1.252 -0.1061E-19  0.2000E+01
      1.308 -0.5210E-18  0.2000E+01
      1.364 -0.2182E-16  0.2000E+01
      1.420 -0.7793E-15  0.2000E+01
      1.476 -0.2372E-13  0.2000E+01
      1.532 -0.5975E-12  0.2000E+01
      1.588 -0.1315E-10  0.2000E+01
      1.644 -0.2464E-09  0.2000E+01
      1.700 -0.3927E-08  0.2000E+01
      1.756 -0.5317E-07  0.2000E+01
      1.812 -0.6111E-06  0.2000E+01
      1.868 -0.5954E-05  0.2000E+01
      1.924 -0.4909E-04  0.2000E+01
      1.980 -0.3418E-03  0.2000E+01
      2.036 -0.2004E-02  0.2000E+01
      2.092 -0.9850E-02  0.1999E+01
      2.149 -0.4035E-01  0.1997E+01
      2.205 -0.1365E+00  0.1989E+01
      2.261 -0.3750E+00  0.1968E+01
      2.317 -0.8112E+00  0.1923E+01
      2.373 -0.1280E+01  0.1851E+01
      2.429 -0.1091E+01  0.1790E+01
      2.485  0.1031E+01  0.1848E+01
      2.541  0.6214E+01  0.2196E+01
      2.597  0.1401E+02  0.2981E+01
      2.653  0.2159E+02  0.4191E+01
      2.709  0.2509E+02  0.5597E+01
      2.765  0.2248E+02  0.6857E+01
      2.821  0.1529E+02  0.7714E+01
      2.877  0.7287E+01  0.8122E+01
      2.933  0.1616E+01  0.8213E+01
      2.989 -0.9259E+00  0.8161E+01
      3.045 -0.1320E+01  0.8087E+01
      3.101 -0.8910E+00  0.8037E+01
      3.157 -0.4294E+00  0.8013E+01
      3.213 -0.1617E+00  0.8004E+01
      3.269 -0.4931E-01  0.8001E+01
      3.325 -0.1239E-01  0.8000E+01
      3.381 -0.2591E-02  0.8000E+01
      3.437 -0.4539E-03  0.8000E+01
      3.493 -0.6693E-04  0.8000E+01
      3.549 -0.8330E-05  0.8000E+01
      3.605 -0.8771E-06  0.8000E+01
      3.661 -0.7828E-07  0.8000E+01
      3.718 -0.5928E-08  0.8000E+01
      3.774 -0.3814E-09  0.8000E+01
      3.830 -0.2085E-10  0.8000E+01
      3.886 -0.9748E-12  0.8000E+01
      3.942 -0.4755E-13  0.8000E+01
      3.998  0.0000E+00  0.8000E+01
      4.054  0.0000E+00  0.8000E+01
      4.110  0.0000E+00  0.8000E+01
      4.166  0.0000E+00  0.8000E+01
      4.222  0.0000E+00  0.8000E+01
      4.278  0.0000E+00  0.8000E+01
      4.334  0.0000E+00  0.8000E+01
      4.390  0.0000E+00  0.8000E+01
      4.446  0.0000E+00  0.8000E+01
      4.502  0.0000E+00  0.8000E+01
      4.558  0.0000E+00  0.8000E+01
      4.614  0.0000E+00  0.8000E+01
      4.670  0.0000E+00  0.8000E+01
      4.726  0.0000E+00  0.8000E+01
      4.782  0.0000E+00  0.8000E+01
      4.838  0.0000E+00  0.8000E+01
      4.894  0.0000E+00  0.8000E+01
      4.950  0.0000E+00  0.8000E+01
      5.006  0.0000E+00  0.8000E+01
      5.062  0.0000E+00  0.8000E+01
      5.118  0.0000E+00  0.8000E+01
      5.174  0.0000E+00  0.8000E+01
      5.230 -0.6629E-27  0.8000E+01
      5.286 -0.5967E-25  0.8000E+01
      5.343 -0.4628E-23  0.8000E+01
      5.399 -0.3063E-21  0.8000E+01
      5.455 -0.1729E-19  0.8000E+01
      5.511 -0.8327E-18  0.8000E+01
      5.567 -0.3420E-16  0.8000E+01
      5.623 -0.1198E-14  0.8000E+01
      5.679 -0.3574E-13  0.8000E+01
      5.735 -0.8793E-12  0.8000E+01
      5.791 -0.1904E-10  0.8000E+01
      5.847 -0.3497E-09  0.8000E+01
      5.903 -0.5462E-08  0.8000E+01
      5.959 -0.7249E-07  0.8000E+01
      6.015 -0.8164E-06  0.8000E+01
      6.071 -0.7792E-05  0.8000E+01
      6.127 -0.6293E-04  0.8000E+01
      6.183 -0.4291E-03  0.8000E+01
      6.239 -0.2462E-02  0.8000E+01
      6.295 -0.1184E-01  0.7999E+01
      6.351 -0.4739E-01  0.7997E+01
      6.407 -0.1564E+00  0.7988E+01
      6.463 -0.4182E+00  0.7964E+01
      6.519 -0.8750E+00  0.7915E+01
      6.575 -0.1314E+01  0.7842E+01
      6.631 -0.9627E+00  0.7788E+01
      6.687  0.1493E+01  0.7871E+01
      6.743  0.7068E+01  0.8267E+01
      6.799  0.1503E+02  0.9110E+01
      6.855  0.2232E+02  0.1036E+02
      6.912  0.2511E+02  0.1177E+02
      6.968  0.2178E+02  0.1299E+02
      7.024  0.1426E+02  0.1379E+02
      7.080  0.6423E+01  0.1415E+02
      7.136  0.1142E+01  0.1421E+02
      7.192 -0.1062E+01  0.1415E+02
      7.248 -0.1289E+01  0.1408E+02
      7.304 -0.8270E+00  0.1403E+02
      7.360 -0.3855E+00  0.1401E+02
      7.416 -0.1412E+00  0.1400E+02
      7.472 -0.4202E-01  0.1400E+02
      7.528 -0.1031E-01  0.1400E+02
      7.584 -0.2110E-02  0.1400E+02
      7.640 -0.3618E-03  0.1400E+02
      7.696 -0.5224E-04  0.1400E+02
      7.752 -0.6369E-05  0.1400E+02
      7.808 -0.6570E-06  0.1400E+02
      7.864 -0.5746E-07  0.1400E+02
      7.920 -0.4265E-08  0.1400E+02
      7.976 -0.2689E-09  0.1400E+02
      8.032 -0.1441E-10  0.1400E+02
      8.088 -0.6657E-12  0.1400E+02
      8.144 -0.2378E-13  0.1400E+02
      8.200  0.0000E+00  0.1400E+02
      8.256  0.0000E+00  0.1400E+02
      8.312  0.0000E+00  0.1400E+02
      8.368  0.0000E+00  0.1400E+02
      8.424  0.0000E+00  0.1400E+02
      8.480  0.0000E+00  0.1400E+02
      8.537  0.0000E+00  0.1400E+02
      8.593  0.0000E+00  0.1400E+02
      8.649  0.0000E+00  0.1400E+02
      8.705  0.0000E+00  0.1400E+02
      8.761  0.0000E+00  0.1400E+02
      8.817  0.0000E+00  0.1400E+02
      8.873  0.0000E+00  0.1400E+02
      8.929  0.0000E+00  0.1400E+02
      8.985  0.0000E+00  0.1400E+02
      9.041  0.0000E+00  0.1400E+02
      9.097  0.0000E+00  0.1400E+02
      9.153  0.0000E+00  0.1400E+02
      9.209  0.0000E+00  0.1400E+02
      9.265  0.0000E+00  0.1400E+02
      9.321  0.0000E+00  0.1400E+02
      9.377 -0.5620E-26  0.1400E+02
      9.433 -0.4513E-24  0.1400E+02
      9.489 -0.3126E-22  0.1400E+02
      9.545 -0.1847E-20  0.1400E+02
      9.601 -0.9308E-19  0.1400E+02
      9.657 -0.4001E-17  0.1400E+02
      9.713 -0.1467E-15  0.1400E+02
      9.769 -0.4582E-14  0.1400E+02
      9.825 -0.1180E-12  0.1400E+02
      9.881 -0.2678E-11  0.1400E+02
      9.937 -0.5152E-10  0.1400E+02
      9.993 -0.8430E-09  0.1400E+02
     10.049 -0.1172E-07  0.1400E+02
     10.106 -0.1384E-06  0.1400E+02
     10.162 -0.1386E-05  0.1400E+02
     10.218 -0.1174E-04  0.1400E+02
     10.274 -0.8409E-04  0.1400E+02
     10.330 -0.5075E-03  0.1400E+02
     10.386 -0.2571E-02  0.1400E+02
     10.442 -0.1088E-01  0.1400E+02
     10.498 -0.3819E-01  0.1400E+02
     10.554 -0.1097E+00  0.1399E+02
     10.610 -0.2527E+00  0.1398E+02
     10.666 -0.4454E+00  0.1395E+02
     10.722 -0.5270E+00  0.1392E+02
     10.778 -0.1503E+00  0.1391E+02
     10.834  0.1083E+01  0.1397E+02
     10.890  0.3325E+01  0.1416E+02
     10.946  0.6333E+01  0.1452E+02
     11.002  0.9711E+01  0.1506E+02
     11.058  0.1319E+02  0.1580E+02
     11.114  0.1636E+02  0.1672E+02
     11.170  0.1821E+02  0.1774E+02
     11.226  0.1744E+02  0.1871E+02
     11.282  0.1368E+02  0.1948E+02
     11.338  0.8253E+01  0.1994E+02
     11.394  0.3312E+01  0.2013E+02
     11.450  0.2660E+00  0.2014E+02
     11.506 -0.8530E+00  0.2009E+02
     11.562 -0.8473E+00  0.2005E+02
     11.618 -0.5071E+00  0.2002E+02
     11.675 -0.2263E+00  0.2001E+02
     11.731 -0.8013E-01  0.2000E+02
     11.787 -0.2313E-01  0.2000E+02
     11.843 -0.5524E-02  0.2000E+02
     11.899 -0.1101E-02  0.2000E+02
     11.955 -0.1840E-03  0.2000E+02
     12.011 -0.2591E-04  0.2000E+02
     12.067 -0.3082E-05  0.2000E+02
     12.123 -0.3104E-06  0.2000E+02
     12.179 -0.2650E-07  0.2000E+02
     12.235 -0.1921E-08  0.2000E+02
     12.291 -0.1183E-09  0.2000E+02
     12.347 -0.6197E-11  0.2000E+02
     12.403 -0.2695E-12  0.2000E+02
     12.459 -0.1585E-13  0.2000E+02
     12.515  0.0000E+00  0.2000E+02
     12.571  0.0000E+00  0.2000E+02
     12.627  0.0000E+00  0.2000E+02
     12.683  0.0000E+00  0.2000E+02
     12.739  0.0000E+00  0.2000E+02
     12.795  0.0000E+00  0.2000E+02
     12.851  0.0000E+00  0.2000E+02
     12.907  0.0000E+00  0.2000E+02
     12.963  0.0000E+00  0.2000E+02
     13.019  0.0000E+00  0.2000E+02
     13.075  0.0000E+00  0.2000E+02
     13.131  0.0000E+00  0.2000E+02
     13.187  0.0000E+00  0.2000E+02
