<?xml version="1.0" encoding="ISO-8859-1"?>
<modeling>
 <generator>
  <i name="program" type="string">vasp </i>
  <i name="version" type="string">5.2.2  </i>
  <i name="subversion" type="string">15Apr09 complex  parallel </i>
  <i name="platform" type="string">LinuxIFC </i>
  <i name="date" type="string">2013 08 21 </i>
  <i name="time" type="string">16:10:15 </i>
 </generator>
 <incar>
  <i type="string" name="PREC">accurate</i>
  <i type="int" name="IBRION">    -1</i>
  <i type="int" name="NSW">     0</i>
  <i type="int" name="ISIF">     2</i>
  <i name="ENCUT">    300.54625000</i>
  <i type="int" name="ISMEAR">     1</i>
  <i name="SIGMA">      0.20000000</i>
  <i type="logical" name="LWAVE"> T  </i>
  <i type="logical" name="LCHARG"> F  </i>
  <i type="logical" name="LPEAD"> F  </i>
  <i type="logical" name="LCALCPOL"> F  </i>
  <i type="logical" name="LCALCEPS"> F  </i>
  <v name="EFIELD_PEAD">      0.00000000      0.00000000      0.00000000</v>
  <i type="logical" name="LEFG"> F  </i>
 </incar>
 <kpoints>
  <generation param="Monkhorst-Pack">
   <v type="int" name="divisions">       2        2        2 </v>
   <v name="usershift">      0.00000000       0.00000000       0.00000000 </v>
   <v name="genvec1">      0.50000000       0.00000000       0.00000000 </v>
   <v name="genvec2">      0.00000000       0.50000000       0.00000000 </v>
   <v name="genvec3">      0.00000000       0.00000000       0.50000000 </v>
   <v name="shift">      0.50000000       0.50000000       0.50000000 </v>
  </generation>
  <varray name="kpointlist" >
   <v>       0.25000000       0.25000000       0.25000000 </v>
  </varray>
  <varray name="weights" >
   <v>       1.00000000 </v>
  </varray>
 </kpoints>
 <parameters>
  <separator name="general" >
   <i type="string" name="SYSTEM">unknown system</i>
   <i type="logical" name="LCOMPAT"> F  </i>
  </separator>
  <separator name="electronic" >
   <i type="string" name="PREC">accura</i>
   <i name="ENMAX">    300.54625000</i>
   <i name="ENAUG">    291.05200000</i>
   <i name="EDIFF">      0.00010000</i>
   <i type="int" name="IALGO">    38</i>
   <i type="int" name="IWAVPR">    10</i>
   <i type="int" name="NBANDS">    10</i>
   <i name="NELECT">     12.00000000</i>
   <separator name="electronic smearing" >
    <i type="int" name="ISMEAR">     1</i>
    <i name="SIGMA">      0.20000000</i>
   </separator>
   <separator name="electronic projectors" >
    <i type="logical" name="LREAL"> F  </i>
    <v name="ROPT">      0.00000000</v>
    <i type="int" name="LMAXPAW">  -100</i>
    <i type="int" name="LMAXMIX">     2</i>
   </separator>
   <separator name="electronic startup" >
    <i type="int" name="ISTART">     0</i>
    <i type="int" name="ICHARG">     2</i>
    <i type="int" name="INIWAV">     1</i>
   </separator>
   <separator name="electronic spin" >
    <i type="int" name="ISPIN">     1</i>
    <i type="logical" name="LNONCOLLINEAR"> F  </i>
    <v name="MAGMOM">      1.00000000      1.00000000      1.00000000      1.00000000</v>
    <i name="NUPDOWN">     -1.00000000</i>
    <i type="logical" name="LSORBIT"> F  </i>
    <v name="SAXIS">      0.00000000      0.00000000      1.00000000</v>
    <i type="logical" name="LSPIRAL"> F  </i>
    <v name="QSPIRAL">      0.00000000      0.00000000      0.00000000</v>
    <i type="logical" name="LZEROZ"> F  </i>
   </separator>
   <separator name="electronic exchange-correlation" >
    <i type="logical" name="LASPH"> F  </i>
    <i type="logical" name="LMETAGGA"> F  </i>
   </separator>
   <separator name="electronic convergence" >
    <i type="int" name="NELM">    60</i>
    <i type="int" name="NELMDL">    -5</i>
    <i type="int" name="NELMIN">     2</i>
    <i name="ENINI">    300.54625000</i>
    <separator name="electronic convergence detail" >
     <i type="logical" name="LDIAG"> T  </i>
     <i name="WEIMIN">      0.00000000</i>
     <i name="EBREAK">      0.00000250</i>
     <i name="DEPER">      0.30000000</i>
     <i type="int" name="NRMM">     4</i>
     <i name="TIME">      0.40000000</i>
    </separator>
   </separator>
   <separator name="electronic mixer" >
    <i name="AMIX">      0.40000000</i>
    <i name="BMIX">      1.00000000</i>
    <i name="AMIN">      0.10000000</i>
    <i name="AMIX_MAG">      1.60000000</i>
    <i name="BMIX_MAG">      1.00000000</i>
    <separator name="electronic mixer details" >
     <i type="int" name="IMIX">     4</i>
     <i type="int" name="MAXMIX">   -45</i>
     <i name="WC">    100.00000000</i>
     <i type="int" name="INIMIX">     1</i>
     <i type="int" name="MIXPRE">     1</i>
     <i type="int" name="MREMOVE">     5</i>
    </separator>
   </separator>
   <separator name="electronic dipolcorrection" >
    <i type="logical" name="LDIPOL"> F  </i>
    <i type="logical" name="LMONO"> F  </i>
    <i type="int" name="IDIPOL">     0</i>
    <i name="EPSILON">      1.00000000</i>
    <v name="DIPOL">   -100.00000000   -100.00000000   -100.00000000</v>
    <i name="EFIELD">      0.00000000</i>
   </separator>
  </separator>
  <separator name="grids" >
   <i type="int" name="NGX">    24</i>
   <i type="int" name="NGY">    24</i>
   <i type="int" name="NGZ">    24</i>
   <i type="int" name="NGXF">    48</i>
   <i type="int" name="NGYF">    48</i>
   <i type="int" name="NGZF">    48</i>
   <i type="logical" name="ADDGRID"> F  </i>
  </separator>
  <separator name="ionic" >
   <i type="int" name="NSW">     0</i>
   <i type="int" name="IBRION">    -1</i>
   <i type="int" name="ISIF">     2</i>
   <i name="PSTRESS">      0.00000000</i>
   <i name="EDIFFG">      0.00100000</i>
   <i type="int" name="NFREE">     0</i>
   <i name="POTIM">      0.50000000</i>
   <i name="SMASS">     -3.00000000</i>
  </separator>
  <separator name="ionic md" >
   <i name="TEBEG">      0.00010000</i>
   <i name="TEEND">      0.00010000</i>
   <i type="int" name="NBLOCK">     1</i>
   <i type="int" name="KBLOCK">     1</i>
   <i type="int" name="NPACO">   256</i>
   <i name="APACO">     16.00000000</i>
  </separator>
  <separator name="symmetry" >
   <i type="int" name="ISYM">     2</i>
   <i name="SYMPREC">      0.00001000</i>
  </separator>
  <separator name="dos" >
   <i type="logical" name="LORBIT"> F  </i>
   <v name="RWIGS">     -1.00000000</v>
   <i type="int" name="NEDOS">   301</i>
   <i name="EMIN">     10.00000000</i>
   <i name="EMAX">    -10.00000000</i>
   <i name="EFERMI">      0.00000000</i>
  </separator>
  <separator name="writing" >
   <i type="int" name="NWRITE">     2</i>
   <i type="logical" name="LWAVE"> T  </i>
   <i type="logical" name="LCHARG"> F  </i>
   <i type="logical" name="LPARD"> F  </i>
   <i type="logical" name="LVTOT"> F  </i>
   <i type="logical" name="LELF"> F  </i>
   <i type="logical" name="LOPTICS"> F  </i>
   <v name="STM">      0.00000000      0.00000000      0.00000000      0.00000000      0.00000000</v>
  </separator>
  <separator name="performance" >
   <i type="int" name="NPAR">     1</i>
   <i type="int" name="NSIM">     4</i>
   <i type="int" name="NBLK">    32</i>
   <i type="logical" name="LPLANE"> T  </i>
   <i type="logical" name="LSCALAPACK"> F  </i>
   <i type="logical" name="LSCAAWARE"> F  </i>
   <i type="logical" name="LSCALU"> F  </i>
   <i type="logical" name="LASYNC"> F  </i>
  </separator>
  <separator name="miscellaneous" >
   <i type="int" name="IDIOT">     3</i>
   <i type="logical" name="LMUSIC"> F  </i>
   <v name="POMASS">     26.98200000</v>
   <i type="logical" name="LCORR"> T  </i>
  </separator>
  <i type="logical" name="LREAL_COMPAT"> F  </i>
  <i type="logical" name="GGA_COMPAT"> T  </i>
  <i type="logical" name="LBERRY"> F  </i>
  <i type="int" name="ICORELEVEL">     0</i>
  <i type="logical" name="LDAU"> F  </i>
  <i type="int" name="I_CONSTRAINED_M">     0</i>
  <separator name="electronic exchange-correlation" >
   <i type="string" name="GGA">--</i>
   <i type="int" name="VOSKOWN">     0</i>
   <i type="logical" name="LHFCALC"> F  </i>
   <i type="logical" name="LHFONE"> F  </i>
   <i type="logical" name="LRHFCALC"> F  </i>
   <i type="logical" name="LTHOMAS"> F  </i>
   <i type="logical" name="LMODELHF"> F  </i>
   <i name="ENCUTFOCK">      0.00000000</i>
   <i name="ENCUT4O">     -1.00000000</i>
   <i type="int" name="EXXOEP">     0</i>
   <i type="int" name="FOURORBIT">     0</i>
   <i name="AEXX">      0.00000000</i>
   <i name="HFALPHA">      0.00000000</i>
   <i name="ALDAX">      1.00000000</i>
   <i name="AGGAX">      1.00000000</i>
   <i name="ALDAC">      1.00000000</i>
   <i name="AGGAC">      1.00000000</i>
   <i type="int" name="NKREDX">     1</i>
   <i type="int" name="NKREDY">     1</i>
   <i type="int" name="NKREDZ">     1</i>
   <i type="logical" name="SHIFTRED"> F  </i>
   <i type="logical" name="ODDONLY"> F  </i>
   <i type="logical" name="EVENONLY"> F  </i>
   <i type="int" name="LMAXFOCK">     0</i>
   <i type="int" name="NMAXFOCKAE">     0</i>
   <i name="HFSCREEN">      0.00000000</i>
   <i name="HFSCREENC">      0.00000000</i>
  </separator>
  <separator name="model GW" >
   <i type="int" name="MODEL_GW">     0</i>
   <i name="MODEL_EPS0">     10.24070609</i>
   <i name="MODEL_ALPHA">      1.00000000</i>
  </separator>
  <separator name="linear response parameters" >
   <i type="logical" name="LEPSILON"> F  </i>
   <i type="logical" name="LRPA"> F  </i>
   <i type="logical" name="LNABLA"> F  </i>
   <i type="logical" name="LVEL"> F  </i>
   <i type="int" name="KINTER">     0</i>
   <i name="CSHIFT">      0.10000000</i>
   <i name="OMEGAMAX">     -1.00000000</i>
  </separator>
  <separator name="orbital magnetization" >
   <i type="logical" name="ORBITALMAG"> F  </i>
   <i type="logical" name="LMAGBLOCH"> F  </i>
   <i type="logical" name="LCHIMAG"> F  </i>
   <i type="logical" name="LGAUGE"> T  </i>
   <i type="int" name="MAGATOM">     0</i>
   <v name="MAGDIPOL">      0.00000000      0.00000000      0.00000000</v>
   <v name="AVECCONST">      0.00000000      0.00000000      0.00000000</v>
  </separator>
  <separator name="response functions" >
   <i type="logical" name="LRPA"> T  </i>
   <i type="logical" name="LTCTE"> F  </i>
   <i type="logical" name="LTETE"> F  </i>
   <i type="logical" name="L2ORDER"> F  </i>
   <i type="logical" name="LGWLF"> F  </i>
   <i name="ENCUTGW">    200.36416667</i>
   <i name="ENCUTGWSOFT">     -2.00000000</i>
   <i name="ENCUTLF">     -1.00000000</i>
   <i type="int" name="LMAXMP2">    -1</i>
   <i name="SCISSOR">      0.00000000</i>
   <i type="int" name="NOMEGA">     0</i>
   <i type="int" name="NOMEGAR">     0</i>
   <i type="int" name="NBANDSGW">    -1</i>
   <i type="int" name="NBANDSLF">    -1</i>
   <i type="int" name="NELM">     1</i>
   <i type="int" name="DIM">     3</i>
   <i type="int" name="ANTIRES">     0</i>
   <i type="logical" name="LUSEW"> F  </i>
   <i name="OMEGAMAX">    -30.00000000</i>
   <i name="OMEGATL">   -200.00000000</i>
   <i type="int" name="OMEGAGRID">     0</i>
   <i name="CSHIFT">     -0.10000000</i>
   <i type="logical" name="SELFENERGY"> F  </i>
   <i type="logical" name="LSPECTRAL"> F  </i>
   <i type="logical" name="ODDONLYGW"> F  </i>
   <i type="logical" name="EVENONLYGW"> F  </i>
   <i type="int" name="NKREDLFX">     1</i>
   <i type="int" name="NKREDLFY">     1</i>
   <i type="int" name="NKREDLFZ">     1</i>
   <i type="int" name="MAXMEM">  1024</i>
   <i type="int" name="TELESCOPE">     0</i>
  </separator>
 </parameters>
 <atominfo>
  <atoms>       4 </atoms>
  <types>       1 </types>
  <array name="atoms" >
   <dimension dim="1">ion</dimension>
   <field type="string">element</field>
   <field type="int">atomtype</field>
   <set>
    <rc><c>Al</c><c>   1</c></rc>
    <rc><c>Al</c><c>   1</c></rc>
    <rc><c>Al</c><c>   1</c></rc>
    <rc><c>Al</c><c>   1</c></rc>
   </set>
  </array>
  <array name="atomtypes" >
   <dimension dim="1">type</dimension>
   <field type="int">atomspertype</field>
   <field type="string">element</field>
   <field>mass</field>
   <field>valence</field>
   <field type="string">pseudopotential</field>
   <set>
    <rc><c>   4</c><c>Al</c><c>     26.98200000</c><c>      3.00000000</c><c> PAW_GGA Al 05Jan2001                   </c></rc>
   </set>
  </array>
 </atominfo>
 <structure name="initialpos" >
  <crystal>
   <varray name="basis" >
    <v>       4.08707757       0.00000000       0.00000000 </v>
    <v>       0.00000000       4.08707757       0.00000000 </v>
    <v>       0.00000000       0.00000000       4.08707757 </v>
   </varray>
   <i name="volume">     68.27137390 </i>
   <varray name="rec_basis" >
    <v>       0.24467360       0.00000000       0.00000000 </v>
    <v>       0.00000000       0.24467360       0.00000000 </v>
    <v>       0.00000000       0.00000000       0.24467360 </v>
   </varray>
  </crystal>
  <varray name="positions" >
   <v>       0.00000000       0.00000000       0.00000000 </v>
   <v>       0.50000000       0.50000000       0.00000000 </v>
   <v>       0.00000000       0.50000000       0.50000000 </v>
   <v>       0.50000000       0.00000000       0.50000000 </v>
  </varray>
 </structure>
 <calculation>
  <scstep>
   <time name="dav">    0.30    0.09</time>
   <time name="total">    0.72    0.35</time>
   <energy>
    <i name="alphaZ">     -0.59676587 </i>
    <i name="ewald">   -290.76489886 </i>
    <i name="hartreedc">     -0.46831864 </i>
    <i name="XCdc">   -105.81200620 </i>
    <i name="pawpsdc">    142.63640024 </i>
    <i name="pawaedc">    -14.42330091 </i>
    <i name="eentropy">      0.01159581 </i>
    <i name="bandstr">     59.81666534 </i>
    <i name="atom">    214.75958916 </i>
    <i name="e_fr_energy">      5.15896007 </i>
    <i name="e_wo_entrp">      5.14736426 </i>
    <i name="e_0_energy">      5.15509480 </i>
   </energy>
  </scstep>
  <scstep>
   <time name="dav">    0.45    0.11</time>
   <time name="total">    0.45    0.11</time>
   <energy>
    <i name="e_fr_energy">    -13.73628708 </i>
    <i name="e_wo_entrp">    -13.66643660 </i>
    <i name="e_0_energy">    -13.71300359 </i>
   </energy>
  </scstep>
  <scstep>
   <time name="dav">    0.35    0.09</time>
   <time name="total">    0.36    0.09</time>
   <energy>
    <i name="e_fr_energy">    -14.09601301 </i>
    <i name="e_wo_entrp">    -13.94667453 </i>
    <i name="e_0_energy">    -14.04623352 </i>
   </energy>
  </scstep>
  <scstep>
   <time name="dav">    0.52    0.13</time>
   <time name="total">    0.53    0.13</time>
   <energy>
    <i name="e_fr_energy">    -14.09884424 </i>
    <i name="e_wo_entrp">    -13.94950065 </i>
    <i name="e_0_energy">    -14.04906305 </i>
   </energy>
  </scstep>
  <scstep>
   <time name="dav">    0.35    0.09</time>
   <time name="total">    0.52    0.13</time>
   <energy>
    <i name="e_fr_energy">    -14.09884435 </i>
    <i name="e_wo_entrp">    -13.94950075 </i>
    <i name="e_0_energy">    -14.04906315 </i>
   </energy>
  </scstep>
  <scstep>
   <time name="dav">    0.50    0.13</time>
   <time name="total">    0.97    0.44</time>
   <energy>
    <i name="e_fr_energy">    -14.05554699 </i>
    <i name="e_wo_entrp">    -13.90620339 </i>
    <i name="e_0_energy">    -14.00576579 </i>
   </energy>
  </scstep>
  <scstep>
   <time name="dav">    0.40    0.11</time>
   <time name="total">    0.87    0.42</time>
   <energy>
    <i name="e_fr_energy">    -14.02551414 </i>
    <i name="e_wo_entrp">    -13.87617054 </i>
    <i name="e_0_energy">    -13.97573294 </i>
   </energy>
  </scstep>
  <scstep>
   <time name="dav">    0.49    0.13</time>
   <time name="total">    0.85    0.40</time>
   <energy>
    <i name="alphaZ">     -0.59676587 </i>
    <i name="ewald">   -290.76489886 </i>
    <i name="hartreedc">     -0.40583430 </i>
    <i name="XCdc">   -105.41123474 </i>
    <i name="pawpsdc">    142.98412492 </i>
    <i name="pawaedc">    -14.82951508 </i>
    <i name="eentropy">     -0.14934360 </i>
    <i name="bandstr">     40.38833043 </i>
    <i name="atom">    214.75958916 </i>
    <i name="e_fr_energy">    -14.02554795 </i>
    <i name="e_wo_entrp">    -13.87620435 </i>
    <i name="e_0_energy">    -13.97576675 </i>
   </energy>
  </scstep>
  <structure>
   <crystal>
    <varray name="basis" >
     <v>       4.08707757       0.00000000       0.00000000 </v>
     <v>       0.00000000       4.08707757       0.00000000 </v>
     <v>       0.00000000       0.00000000       4.08707757 </v>
    </varray>
    <i name="volume">     68.27137390 </i>
    <varray name="rec_basis" >
     <v>       0.24467360       0.00000000       0.00000000 </v>
     <v>       0.00000000       0.24467360       0.00000000 </v>
     <v>       0.00000000       0.00000000       0.24467360 </v>
    </varray>
   </crystal>
   <varray name="positions" >
    <v>       0.00000000       0.00000000       0.00000000 </v>
    <v>       0.50000000       0.50000000       0.00000000 </v>
    <v>       0.00000000       0.50000000       0.50000000 </v>
    <v>       0.50000000       0.00000000       0.50000000 </v>
   </varray>
  </structure>
  <varray name="forces" >
   <v>       0.00000000       0.00000000       0.00000000 </v>
   <v>       0.00000000       0.00000000       0.00000000 </v>
   <v>       0.00000000       0.00000000       0.00000000 </v>
   <v>       0.00000000       0.00000000       0.00000000 </v>
  </varray>
  <varray name="stress" >
   <v>      -0.73450517       0.00000000       0.00000000 </v>
   <v>       0.00000000      -0.73450517       0.00000000 </v>
   <v>       0.00000000       0.00000000      -0.73450517 </v>
  </varray>
  <energy>
   <i name="e_fr_energy">    -14.02554795 </i>
   <i name="e_wo_entrp">    -13.97576675 </i>
   <i name="e_0_energy">     -0.14934360 </i>
  </energy>
  <time name="totalsc">    6.63    2.94</time>
  <eigenvalues>
   <array>
    <dimension dim="1">band</dimension>
    <dimension dim="2">kpoint</dimension>
    <dimension dim="3">spin</dimension>
    <field>eigene</field>
    <field>occ</field>
    <set>
     <set comment="spin 1">
      <set comment="kpoint 1">
       <r>   -1.6231    1.0000 </r>
       <r>    2.6852    1.0000 </r>
       <r>    2.6852    1.0000 </r>
       <r>    2.6852    1.0000 </r>
       <r>    6.8809    0.6667 </r>
       <r>    6.8809    0.6667 </r>
       <r>    6.8809    0.6667 </r>
       <r>   10.9875    0.0000 </r>
       <r>   11.1875    0.0000 </r>
       <r>   11.1875    0.0000 </r>
      </set>
     </set>
    </set>
   </array>
  </eigenvalues>
  <separator name="orbital magnetization" >
   <v name="MAGDIPOLOUT">      0.00000000      0.00000000      0.00000000</v>
  </separator>
  <dos>
   <i name="efermi">      6.92118073 </i>
   <total>
    <array>
     <dimension dim="1">gridpoints</dimension>
     <dimension dim="2">spin</dimension>
     <field>energy</field>
     <field>total</field>
     <field>integrated</field>
     <set>
      <set comment="spin 1">
       <r>  -3.6231   0.0000   0.0000 </r>
       <r>  -3.5671   0.0000   0.0000 </r>
       <r>  -3.5111   0.0000   0.0000 </r>
       <r>  -3.4550   0.0000   0.0000 </r>
       <r>  -3.3990   0.0000   0.0000 </r>
       <r>  -3.3429   0.0000   0.0000 </r>
       <r>  -3.2869   0.0000   0.0000 </r>
       <r>  -3.2309   0.0000   0.0000 </r>
       <r>  -3.1748   0.0000   0.0000 </r>
       <r>  -3.1188   0.0000   0.0000 </r>
       <r>  -3.0628   0.0000   0.0000 </r>
       <r>  -3.0067   0.0000   0.0000 </r>
       <r>  -2.9507   0.0000   0.0000 </r>
       <r>  -2.8947   0.0000   0.0000 </r>
       <r>  -2.8386   0.0000   0.0000 </r>
       <r>  -2.7826   0.0000   0.0000 </r>
       <r>  -2.7266   0.0000   0.0000 </r>
       <r>  -2.6705   0.0000   0.0000 </r>
       <r>  -2.6145   0.0000   0.0000 </r>
       <r>  -2.5585   0.0000   0.0000 </r>
       <r>  -2.5024   0.0000   0.0000 </r>
       <r>  -2.4464   0.0000   0.0000 </r>
       <r>  -2.3903   0.0000   0.0000 </r>
       <r>  -2.3343  -0.0001   0.0000 </r>
       <r>  -2.2783  -0.0006   0.0000 </r>
       <r>  -2.2222  -0.0028  -0.0002 </r>
       <r>  -2.1662  -0.0116  -0.0008 </r>
       <r>  -2.1102  -0.0400  -0.0031 </r>
       <r>  -2.0541  -0.1126  -0.0094 </r>
       <r>  -1.9981  -0.2509  -0.0234 </r>
       <r>  -1.9421  -0.4136  -0.0466 </r>
       <r>  -1.8860  -0.3944  -0.0687 </r>
       <r>  -1.8300   0.2151  -0.0567 </r>
       <r>  -1.7740   1.8187   0.0452 </r>
       <r>  -1.7179   4.3505   0.2890 </r>
       <r>  -1.6619   6.9536   0.6787 </r>
       <r>  -1.6059   8.3318   1.1455 </r>
       <r>  -1.5498   7.6921   1.5766 </r>
       <r>  -1.4938   5.4103   1.8797 </r>
       <r>  -1.4377   2.7093   2.0316 </r>
       <r>  -1.3817   0.7006   2.0708 </r>
       <r>  -1.3257  -0.2567   2.0564 </r>
       <r>  -1.2696  -0.4462   2.0314 </r>
       <r>  -1.2136  -0.3170   2.0137 </r>
       <r>  -1.1576  -0.1578   2.0048 </r>
       <r>  -1.1015  -0.0610   2.0014 </r>
       <r>  -1.0455  -0.0190   2.0003 </r>
       <r>  -0.9895  -0.0049   2.0001 </r>
       <r>  -0.9334  -0.0010   2.0000 </r>
       <r>  -0.8774  -0.0002   2.0000 </r>
       <r>  -0.8214   0.0000   2.0000 </r>
       <r>  -0.7653   0.0000   2.0000 </r>
       <r>  -0.7093   0.0000   2.0000 </r>
       <r>  -0.6533   0.0000   2.0000 </r>
       <r>  -0.5972   0.0000   2.0000 </r>
       <r>  -0.5412   0.0000   2.0000 </r>
       <r>  -0.4851   0.0000   2.0000 </r>
       <r>  -0.4291   0.0000   2.0000 </r>
       <r>  -0.3731   0.0000   2.0000 </r>
       <r>  -0.3170   0.0000   2.0000 </r>
       <r>  -0.2610   0.0000   2.0000 </r>
       <r>  -0.2050   0.0000   2.0000 </r>
       <r>  -0.1489   0.0000   2.0000 </r>
       <r>  -0.0929   0.0000   2.0000 </r>
       <r>  -0.0369   0.0000   2.0000 </r>
       <r>   0.0192   0.0000   2.0000 </r>
       <r>   0.0752   0.0000   2.0000 </r>
       <r>   0.1312   0.0000   2.0000 </r>
       <r>   0.1873   0.0000   2.0000 </r>
       <r>   0.2433   0.0000   2.0000 </r>
       <r>   0.2993   0.0000   2.0000 </r>
       <r>   0.3554   0.0000   2.0000 </r>
       <r>   0.4114   0.0000   2.0000 </r>
       <r>   0.4675   0.0000   2.0000 </r>
       <r>   0.5235   0.0000   2.0000 </r>
       <r>   0.5795   0.0000   2.0000 </r>
       <r>   0.6356   0.0000   2.0000 </r>
       <r>   0.6916   0.0000   2.0000 </r>
       <r>   0.7476   0.0000   2.0000 </r>
       <r>   0.8037   0.0000   2.0000 </r>
       <r>   0.8597   0.0000   2.0000 </r>
       <r>   0.9157   0.0000   2.0000 </r>
       <r>   0.9718   0.0000   2.0000 </r>
       <r>   1.0278   0.0000   2.0000 </r>
       <r>   1.0838   0.0000   2.0000 </r>
       <r>   1.1399   0.0000   2.0000 </r>
       <r>   1.1959   0.0000   2.0000 </r>
       <r>   1.2519   0.0000   2.0000 </r>
       <r>   1.3080   0.0000   2.0000 </r>
       <r>   1.3640   0.0000   2.0000 </r>
       <r>   1.4201   0.0000   2.0000 </r>
       <r>   1.4761   0.0000   2.0000 </r>
       <r>   1.5321   0.0000   2.0000 </r>
       <r>   1.5882   0.0000   2.0000 </r>
       <r>   1.6442   0.0000   2.0000 </r>
       <r>   1.7002   0.0000   2.0000 </r>
       <r>   1.7563   0.0000   2.0000 </r>
       <r>   1.8123   0.0000   2.0000 </r>
       <r>   1.8683   0.0000   2.0000 </r>
       <r>   1.9244   0.0000   2.0000 </r>
       <r>   1.9804  -0.0003   2.0000 </r>
       <r>   2.0364  -0.0020   1.9999 </r>
       <r>   2.0925  -0.0099   1.9993 </r>
       <r>   2.1485  -0.0404   1.9971 </r>
       <r>   2.2045  -0.1365   1.9894 </r>
       <r>   2.2606  -0.3750   1.9684 </r>
       <r>   2.3166  -0.8112   1.9229 </r>
       <r>   2.3727  -1.2801   1.8512 </r>
       <r>   2.4287  -1.0906   1.7901 </r>
       <r>   2.4847   1.0314   1.8479 </r>
       <r>   2.5408   6.2135   2.1961 </r>
       <r>   2.5968  14.0079   2.9810 </r>
       <r>   2.6528  21.5923   4.1909 </r>
       <r>   2.7089  25.0948   5.5971 </r>
       <r>   2.7649  22.4844   6.8570 </r>
       <r>   2.8209  15.2873   7.7137 </r>
       <r>   2.8770   7.2875   8.1220 </r>
       <r>   2.9330   1.6155   8.2126 </r>
       <r>   2.9890  -0.9259   8.1607 </r>
       <r>   3.0451  -1.3203   8.0867 </r>
       <r>   3.1011  -0.8910   8.0368 </r>
       <r>   3.1571  -0.4294   8.0127 </r>
       <r>   3.2132  -0.1617   8.0036 </r>
       <r>   3.2692  -0.0493   8.0009 </r>
       <r>   3.3253  -0.0124   8.0002 </r>
       <r>   3.3813  -0.0026   8.0000 </r>
       <r>   3.4373  -0.0005   8.0000 </r>
       <r>   3.4934  -0.0001   8.0000 </r>
       <r>   3.5494   0.0000   8.0000 </r>
       <r>   3.6054   0.0000   8.0000 </r>
       <r>   3.6615   0.0000   8.0000 </r>
       <r>   3.7175   0.0000   8.0000 </r>
       <r>   3.7735   0.0000   8.0000 </r>
       <r>   3.8296   0.0000   8.0000 </r>
       <r>   3.8856   0.0000   8.0000 </r>
       <r>   3.9416   0.0000   8.0000 </r>
       <r>   3.9977   0.0000   8.0000 </r>
       <r>   4.0537   0.0000   8.0000 </r>
       <r>   4.1097   0.0000   8.0000 </r>
       <r>   4.1658   0.0000   8.0000 </r>
       <r>   4.2218   0.0000   8.0000 </r>
       <r>   4.2779   0.0000   8.0000 </r>
       <r>   4.3339   0.0000   8.0000 </r>
       <r>   4.3899   0.0000   8.0000 </r>
       <r>   4.4460   0.0000   8.0000 </r>
       <r>   4.5020   0.0000   8.0000 </r>
       <r>   4.5580   0.0000   8.0000 </r>
       <r>   4.6141   0.0000   8.0000 </r>
       <r>   4.6701   0.0000   8.0000 </r>
       <r>   4.7261   0.0000   8.0000 </r>
       <r>   4.7822   0.0000   8.0000 </r>
       <r>   4.8382   0.0000   8.0000 </r>
       <r>   4.8942   0.0000   8.0000 </r>
       <r>   4.9503   0.0000   8.0000 </r>
       <r>   5.0063   0.0000   8.0000 </r>
       <r>   5.0623   0.0000   8.0000 </r>
       <r>   5.1184   0.0000   8.0000 </r>
       <r>   5.1744   0.0000   8.0000 </r>
       <r>   5.2305   0.0000   8.0000 </r>
       <r>   5.2865   0.0000   8.0000 </r>
       <r>   5.3425   0.0000   8.0000 </r>
       <r>   5.3986   0.0000   8.0000 </r>
       <r>   5.4546   0.0000   8.0000 </r>
       <r>   5.5106   0.0000   8.0000 </r>
       <r>   5.5667   0.0000   8.0000 </r>
       <r>   5.6227   0.0000   8.0000 </r>
       <r>   5.6787   0.0000   8.0000 </r>
       <r>   5.7348   0.0000   8.0000 </r>
       <r>   5.7908   0.0000   8.0000 </r>
       <r>   5.8468   0.0000   8.0000 </r>
       <r>   5.9029   0.0000   8.0000 </r>
       <r>   5.9589   0.0000   8.0000 </r>
       <r>   6.0149   0.0000   8.0000 </r>
       <r>   6.0710   0.0000   8.0000 </r>
       <r>   6.1270  -0.0001   8.0000 </r>
       <r>   6.1831  -0.0004   8.0000 </r>
       <r>   6.2391  -0.0025   7.9998 </r>
       <r>   6.2951  -0.0118   7.9992 </r>
       <r>   6.3512  -0.0474   7.9965 </r>
       <r>   6.4072  -0.1564   7.9878 </r>
       <r>   6.4632  -0.4182   7.9643 </r>
       <r>   6.5193  -0.8750   7.9153 </r>
       <r>   6.5753  -1.3136   7.8417 </r>
       <r>   6.6313  -0.9627   7.7877 </r>
       <r>   6.6874   1.4928   7.8714 </r>
       <r>   6.7434   7.0681   8.2674 </r>
       <r>   6.7994  15.0329   9.1098 </r>
       <r>   6.8555  22.3151  10.3602 </r>
       <r>   6.9115  25.1071  11.7671 </r>
       <r>   6.9675  21.7788  12.9875 </r>
       <r>   7.0236  14.2639  13.7868 </r>
       <r>   7.0796   6.4226  14.1467 </r>
       <r>   7.1357   1.1418  14.2107 </r>
       <r>   7.1917  -1.0616  14.1512 </r>
       <r>   7.2477  -1.2894  14.0789 </r>
       <r>   7.3038  -0.8270  14.0326 </r>
       <r>   7.3598  -0.3855  14.0110 </r>
       <r>   7.4158  -0.1412  14.0031 </r>
       <r>   7.4719  -0.0420  14.0007 </r>
       <r>   7.5279  -0.0103  14.0001 </r>
       <r>   7.5839  -0.0021  14.0000 </r>
       <r>   7.6400  -0.0004  14.0000 </r>
       <r>   7.6960  -0.0001  14.0000 </r>
       <r>   7.7520   0.0000  14.0000 </r>
       <r>   7.8081   0.0000  14.0000 </r>
       <r>   7.8641   0.0000  14.0000 </r>
       <r>   7.9201   0.0000  14.0000 </r>
       <r>   7.9762   0.0000  14.0000 </r>
       <r>   8.0322   0.0000  14.0000 </r>
       <r>   8.0883   0.0000  14.0000 </r>
       <r>   8.1443   0.0000  14.0000 </r>
       <r>   8.2003   0.0000  14.0000 </r>
       <r>   8.2564   0.0000  14.0000 </r>
       <r>   8.3124   0.0000  14.0000 </r>
       <r>   8.3684   0.0000  14.0000 </r>
       <r>   8.4245   0.0000  14.0000 </r>
       <r>   8.4805   0.0000  14.0000 </r>
       <r>   8.5365   0.0000  14.0000 </r>
       <r>   8.5926   0.0000  14.0000 </r>
       <r>   8.6486   0.0000  14.0000 </r>
       <r>   8.7046   0.0000  14.0000 </r>
       <r>   8.7607   0.0000  14.0000 </r>
       <r>   8.8167   0.0000  14.0000 </r>
       <r>   8.8727   0.0000  14.0000 </r>
       <r>   8.9288   0.0000  14.0000 </r>
       <r>   8.9848   0.0000  14.0000 </r>
       <r>   9.0409   0.0000  14.0000 </r>
       <r>   9.0969   0.0000  14.0000 </r>
       <r>   9.1529   0.0000  14.0000 </r>
       <r>   9.2090   0.0000  14.0000 </r>
       <r>   9.2650   0.0000  14.0000 </r>
       <r>   9.3210   0.0000  14.0000 </r>
       <r>   9.3771   0.0000  14.0000 </r>
       <r>   9.4331   0.0000  14.0000 </r>
       <r>   9.4891   0.0000  14.0000 </r>
       <r>   9.5452   0.0000  14.0000 </r>
       <r>   9.6012   0.0000  14.0000 </r>
       <r>   9.6572   0.0000  14.0000 </r>
       <r>   9.7133   0.0000  14.0000 </r>
       <r>   9.7693   0.0000  14.0000 </r>
       <r>   9.8253   0.0000  14.0000 </r>
       <r>   9.8814   0.0000  14.0000 </r>
       <r>   9.9374   0.0000  14.0000 </r>
       <r>   9.9935   0.0000  14.0000 </r>
       <r>  10.0495   0.0000  14.0000 </r>
       <r>  10.1055   0.0000  14.0000 </r>
       <r>  10.1616   0.0000  14.0000 </r>
       <r>  10.2176   0.0000  14.0000 </r>
       <r>  10.2736  -0.0001  14.0000 </r>
       <r>  10.3297  -0.0005  14.0000 </r>
       <r>  10.3857  -0.0026  13.9998 </r>
       <r>  10.4417  -0.0109  13.9992 </r>
       <r>  10.4978  -0.0382  13.9971 </r>
       <r>  10.5538  -0.1097  13.9909 </r>
       <r>  10.6098  -0.2527  13.9768 </r>
       <r>  10.6659  -0.4454  13.9518 </r>
       <r>  10.7219  -0.5270  13.9223 </r>
       <r>  10.7779  -0.1503  13.9138 </r>
       <r>  10.8340   1.0828  13.9745 </r>
       <r>  10.8900   3.3248  14.1608 </r>
       <r>  10.9461   6.3330  14.5157 </r>
       <r>  11.0021   9.7106  15.0598 </r>
       <r>  11.0581  13.1868  15.7988 </r>
       <r>  11.1142  16.3612  16.7156 </r>
       <r>  11.1702  18.2141  17.7362 </r>
       <r>  11.2262  17.4364  18.7133 </r>
       <r>  11.2823  13.6754  19.4796 </r>
       <r>  11.3383   8.2534  19.9420 </r>
       <r>  11.3943   3.3121  20.1276 </r>
       <r>  11.4504   0.2660  20.1425 </r>
       <r>  11.5064  -0.8530  20.0947 </r>
       <r>  11.5624  -0.8473  20.0473 </r>
       <r>  11.6185  -0.5071  20.0188 </r>
       <r>  11.6745  -0.2263  20.0062 </r>
       <r>  11.7305  -0.0801  20.0017 </r>
       <r>  11.7866  -0.0231  20.0004 </r>
       <r>  11.8426  -0.0055  20.0001 </r>
       <r>  11.8986  -0.0011  20.0000 </r>
       <r>  11.9547  -0.0002  20.0000 </r>
       <r>  12.0107   0.0000  20.0000 </r>
       <r>  12.0668   0.0000  20.0000 </r>
       <r>  12.1228   0.0000  20.0000 </r>
       <r>  12.1788   0.0000  20.0000 </r>
       <r>  12.2349   0.0000  20.0000 </r>
       <r>  12.2909   0.0000  20.0000 </r>
       <r>  12.3469   0.0000  20.0000 </r>
       <r>  12.4030   0.0000  20.0000 </r>
       <r>  12.4590   0.0000  20.0000 </r>
       <r>  12.5150   0.0000  20.0000 </r>
       <r>  12.5711   0.0000  20.0000 </r>
       <r>  12.6271   0.0000  20.0000 </r>
       <r>  12.6831   0.0000  20.0000 </r>
       <r>  12.7392   0.0000  20.0000 </r>
       <r>  12.7952   0.0000  20.0000 </r>
       <r>  12.8512   0.0000  20.0000 </r>
       <r>  12.9073   0.0000  20.0000 </r>
       <r>  12.9633   0.0000  20.0000 </r>
       <r>  13.0194   0.0000  20.0000 </r>
       <r>  13.0754   0.0000  20.0000 </r>
       <r>  13.1314   0.0000  20.0000 </r>
       <r>  13.1875   0.0000  20.0000 </r>
      </set>
     </set>
    </array>
   </total>
  </dos>
 </calculation>
 <structure name="finalpos" >
  <crystal>
   <varray name="basis" >
    <v>       4.08707757       0.00000000       0.00000000 </v>
    <v>       0.00000000       4.08707757       0.00000000 </v>
    <v>       0.00000000       0.00000000       4.08707757 </v>
   </varray>
   <i name="volume">     68.27137390 </i>
   <varray name="rec_basis" >
    <v>       0.24467360       0.00000000       0.00000000 </v>
    <v>       0.00000000       0.24467360       0.00000000 </v>
    <v>       0.00000000       0.00000000       0.24467360 </v>
   </varray>
  </crystal>
  <varray name="positions" >
   <v>       0.00000000       0.00000000       0.00000000 </v>
   <v>       0.50000000       0.50000000       0.00000000 </v>
   <v>       0.00000000       0.50000000       0.50000000 </v>
   <v>       0.50000000       0.00000000       0.50000000 </v>
  </varray>
 </structure>
</modeling>
