Processors received = 1
script running on host compute-0-1.local
PBS_NODEFILE
compute-0-1
 running on    1 nodes
 distr:  one band on    1 nodes,    1 groups
 vasp.5.2.2 15Apr09 complex 
 POSCAR found type information on POSCAR  Al
 POSCAR found :  1 types and    3 ions
 LDA part: xc-table for Ceperly-Alder, standard interpolation
 POSCAR, INCAR and KPOINTS ok, starting setup
 FFT: planning ...(           1 )
 reading WAVECAR
 entering main loop
       N       E                     dE             d eps       ncg     rms          rms(c)
DAV:   1     0.927682797055E+01    0.92768E+01   -0.26436E+03    32   0.618E+02
DAV:   2    -0.727672730085E+01   -0.16554E+02   -0.16496E+02    40   0.744E+01
DAV:   3    -0.739390325690E+01   -0.11718E+00   -0.11724E+00    56   0.929E+00
DAV:   4    -0.739394046009E+01   -0.37203E-04   -0.37206E-04    56   0.179E-01
DAV:   5    -0.739394047084E+01   -0.10745E-07   -0.10752E-07    56   0.296E-03    0.278E+00
DAV:   6    -0.717641187423E+01    0.21753E+00   -0.21830E-01    48   0.258E+00    0.162E+00
DAV:   7    -0.709232293950E+01    0.84089E-01   -0.21670E-01    64   0.274E+00    0.292E-01
DAV:   8    -0.709114706575E+01    0.11759E-02   -0.11639E-02    32   0.796E-01    0.518E-02
DAV:   9    -0.709113422142E+01    0.12844E-04   -0.44715E-04    48   0.155E-01
   1 F= -.70911342E+01 E0= -.70991312E+01  d E =0.239910E-01
