   3   3   0   0
  0.1535906E+02  0.3585051E-09  0.3585051E-09  0.3585051E-09  0.5000000E-15
  1.000000000000000E-004
  CAR 
 unknown system                          
      7.67476150     -5.64731744  301      5.03565337      1.00000000
     -5.647  0.0000E+00  0.0000E+00
     -5.603  0.0000E+00  0.0000E+00
     -5.559  0.0000E+00  0.0000E+00
     -5.514  0.0000E+00  0.0000E+00
     -5.470  0.0000E+00  0.0000E+00
     -5.425  0.0000E+00  0.0000E+00
     -5.381  0.0000E+00  0.0000E+00
     -5.336  0.0000E+00  0.0000E+00
     -5.292  0.0000E+00  0.0000E+00
     -5.248 -0.8309E-28 -0.3690E-29
     -5.203 -0.2603E-26 -0.1193E-27
     -5.159 -0.7592E-25 -0.3491E-26
     -5.114 -0.2004E-23 -0.9249E-25
     -5.070 -0.4787E-22 -0.2218E-23
     -5.026 -0.1035E-20 -0.4817E-22
     -4.981 -0.2023E-19 -0.9467E-21
     -4.937 -0.3579E-18 -0.1684E-19
     -4.892 -0.5726E-17 -0.2711E-18
     -4.848 -0.8284E-16 -0.3950E-17
     -4.804 -0.1044E-14 -0.5033E-16
     -4.759 -0.1241E-13 -0.6013E-15
     -4.715 -0.1322E-12 -0.6470E-14
     -4.670 -0.1272E-11 -0.6296E-13
     -4.626 -0.1105E-10 -0.5538E-12
     -4.582 -0.8666E-10 -0.4402E-11
     -4.537 -0.6129E-09 -0.3162E-10
     -4.493 -0.3907E-08 -0.2051E-09
     -4.448 -0.2243E-07 -0.1201E-08
     -4.404 -0.1159E-06 -0.6346E-08
     -4.360 -0.5379E-06 -0.3023E-07
     -4.315 -0.2241E-05 -0.1297E-06
     -4.271 -0.8362E-05 -0.5011E-06
     -4.226 -0.2788E-04 -0.1739E-05
     -4.182 -0.8271E-04 -0.5412E-05
     -4.137 -0.2173E-03 -0.1506E-04
     -4.093 -0.5016E-03 -0.3733E-04
     -4.049 -0.1004E-02 -0.8190E-04
     -4.004 -0.1699E-02 -0.1573E-03
     -3.960 -0.2303E-02 -0.2596E-03
     -3.915 -0.2100E-02 -0.3529E-03
     -3.871  0.5591E-04 -0.3504E-03
     -3.827  0.5344E-02 -0.1131E-03
     -3.782  0.1418E-01  0.5165E-03
     -3.738  0.2541E-01  0.1645E-02
     -3.693  0.3619E-01  0.3252E-02
     -3.649  0.4298E-01  0.5161E-02
     -3.605  0.4325E-01  0.7081E-02
     -3.560  0.3689E-01  0.8720E-02
     -3.516  0.2629E-01  0.9887E-02
     -3.471  0.1498E-01  0.1055E-01
     -3.427  0.5894E-02  0.1081E-01
     -3.383  0.3357E-03  0.1083E-01
     -3.338 -0.2021E-02  0.1074E-01
     -3.294 -0.2328E-02  0.1064E-01
     -3.249 -0.1754E-02  0.1056E-01
     -3.205 -0.1051E-02  0.1051E-01
     -3.161 -0.5315E-03  0.1049E-01
     -3.116 -0.2327E-03  0.1048E-01
     -3.072 -0.8940E-04  0.1047E-01
     -3.027 -0.3040E-04  0.1047E-01
     -2.983 -0.9201E-05  0.1047E-01
     -2.938 -0.2487E-05  0.1047E-01
     -2.894 -0.6018E-06  0.1047E-01
     -2.850 -0.1307E-06  0.1047E-01
     -2.805 -0.2550E-07  0.1047E-01
     -2.761 -0.4478E-08  0.1047E-01
     -2.716 -0.7081E-09  0.1047E-01
     -2.672 -0.1009E-09  0.1047E-01
     -2.628 -0.1297E-10  0.1047E-01
     -2.583 -0.1505E-11  0.1047E-01
     -2.539 -0.1575E-12  0.1047E-01
     -2.494 -0.1492E-13  0.1047E-01
     -2.450 -0.1257E-14  0.1047E-01
     -2.406 -0.1047E-15  0.1047E-01
     -2.361  0.0000E+00  0.1047E-01
     -2.317  0.0000E+00  0.1047E-01
     -2.272  0.0000E+00  0.1047E-01
     -2.228  0.0000E+00  0.1047E-01
     -2.184  0.0000E+00  0.1047E-01
     -2.139  0.0000E+00  0.1047E-01
     -2.095  0.0000E+00  0.1047E-01
     -2.050  0.0000E+00  0.1047E-01
     -2.006  0.0000E+00  0.1047E-01
     -1.962  0.0000E+00  0.1047E-01
     -1.917  0.0000E+00  0.1047E-01
     -1.873  0.0000E+00  0.1047E-01
     -1.828  0.0000E+00  0.1047E-01
     -1.784  0.0000E+00  0.1047E-01
     -1.740  0.0000E+00  0.1047E-01
     -1.695  0.0000E+00  0.1047E-01
     -1.651  0.0000E+00  0.1047E-01
     -1.606  0.0000E+00  0.1047E-01
     -1.562 -0.6852E-29  0.1047E-01
     -1.517 -0.2306E-27  0.1047E-01
     -1.473 -0.7214E-26  0.1047E-01
     -1.429 -0.2042E-24  0.1047E-01
     -1.384 -0.5233E-23  0.1047E-01
     -1.340 -0.1213E-21  0.1047E-01
     -1.295 -0.2545E-20  0.1047E-01
     -1.251 -0.4829E-19  0.1047E-01
     -1.207 -0.8289E-18  0.1047E-01
     -1.162 -0.1287E-16  0.1047E-01
     -1.118 -0.1807E-15  0.1047E-01
     -1.073 -0.2214E-14  0.1047E-01
     -1.029 -0.2544E-13  0.1047E-01
     -0.985 -0.2630E-12  0.1047E-01
     -0.940 -0.2455E-11  0.1047E-01
     -0.896 -0.2069E-10  0.1047E-01
     -0.851 -0.1573E-09  0.1047E-01
     -0.807 -0.1078E-08  0.1047E-01
     -0.763 -0.6662E-08  0.1047E-01
     -0.718 -0.3706E-07  0.1047E-01
     -0.674 -0.1855E-06  0.1047E-01
     -0.629 -0.8337E-06  0.1047E-01
     -0.585 -0.3362E-05  0.1047E-01
     -0.541 -0.1213E-04  0.1047E-01
     -0.496 -0.3907E-04  0.1047E-01
     -0.452 -0.1119E-03  0.1046E-01
     -0.407 -0.2830E-03  0.1045E-01
     -0.363 -0.6270E-03  0.1042E-01
     -0.318 -0.1197E-02  0.1037E-01
     -0.274 -0.1912E-02  0.1029E-01
     -0.230 -0.2372E-02  0.1018E-01
     -0.185 -0.1718E-02  0.1010E-01
     -0.141  0.1267E-02  0.1016E-01
     -0.096  0.7631E-02  0.1050E-01
     -0.052  0.1739E-01  0.1127E-01
     -0.008  0.2884E-01  0.1255E-01
      0.037  0.3879E-01  0.1427E-01
      0.081  0.4380E-01  0.1622E-01
      0.126  0.4197E-01  0.1808E-01
      0.170  0.3401E-01  0.1959E-01
      0.214  0.2282E-01  0.2061E-01
      0.259  0.1193E-01  0.2114E-01
      0.303  0.3851E-02  0.2131E-01
      0.348 -0.6603E-03  0.2128E-01
      0.392 -0.2269E-02  0.2118E-01
      0.436 -0.2205E-02  0.2108E-01
      0.481 -0.1536E-02  0.2101E-01
      0.525 -0.8713E-03  0.2097E-01
      0.570 -0.4211E-03  0.2095E-01
      0.614 -0.1771E-03  0.2095E-01
      0.658 -0.6563E-04  0.2094E-01
      0.703 -0.2189E-04  0.2094E-01
      0.747 -0.7975E-05  0.2094E-01
      0.792 -0.8626E-05  0.2094E-01
      0.836 -0.2635E-04  0.2094E-01
      0.881 -0.8638E-04  0.2094E-01
      0.925 -0.2552E-03  0.2093E-01
      0.969 -0.6683E-03  0.2090E-01
      1.014 -0.1537E-02  0.2083E-01
      1.058 -0.3064E-02  0.2069E-01
      1.103 -0.5164E-02  0.2046E-01
      1.147 -0.6966E-02  0.2015E-01
      1.191 -0.6307E-02  0.1987E-01
      1.236  0.2129E-03  0.1988E-01
      1.280  0.1599E-01  0.2059E-01
      1.325  0.4203E-01  0.2246E-01
      1.369  0.7463E-01  0.2577E-01
      1.413  0.1054E+00  0.3045E-01
      1.458  0.1245E+00  0.3598E-01
      1.502  0.1264E+00  0.4160E-01
      1.547  0.1136E+00  0.4664E-01
      1.591  0.9514E-01  0.5086E-01
      1.635  0.8143E-01  0.5448E-01
      1.680  0.7738E-01  0.5792E-01
      1.724  0.8008E-01  0.6147E-01
      1.769  0.8175E-01  0.6510E-01
      1.813  0.7568E-01  0.6846E-01
      1.857  0.6041E-01  0.7115E-01
      1.902  0.3984E-01  0.7292E-01
      1.946  0.2006E-01  0.7381E-01
      1.991  0.5607E-02  0.7405E-01
      2.035 -0.2212E-02  0.7396E-01
      2.079 -0.4736E-02  0.7375E-01
      2.124 -0.4311E-02  0.7355E-01
      2.168 -0.2909E-02  0.7343E-01
      2.213 -0.1615E-02  0.7335E-01
      2.257 -0.7670E-03  0.7332E-01
      2.302 -0.3175E-03  0.7331E-01
      2.346 -0.1159E-03  0.7330E-01
      2.390 -0.3752E-04  0.7330E-01
      2.435 -0.1083E-04  0.7330E-01
      2.479 -0.2794E-05  0.7330E-01
      2.524 -0.6463E-06  0.7330E-01
      2.568 -0.1342E-06  0.7330E-01
      2.612 -0.2507E-07  0.7330E-01
      2.657 -0.4213E-08  0.7330E-01
      2.701 -0.6380E-09  0.7330E-01
      2.746 -0.8711E-10  0.7330E-01
      2.790 -0.1073E-10  0.7330E-01
      2.834 -0.1192E-11  0.7330E-01
      2.879 -0.1196E-12  0.7330E-01
      2.923 -0.1089E-13  0.7330E-01
      2.968 -0.8377E-15  0.7330E-01
      3.012 -0.1047E-15  0.7330E-01
      3.056 -0.2439E-22  0.7330E-01
      3.101 -0.5576E-21  0.7330E-01
      3.145 -0.1154E-19  0.7330E-01
      3.190 -0.2159E-18  0.7330E-01
      3.234 -0.3655E-17  0.7330E-01
      3.278 -0.5596E-16  0.7330E-01
      3.323 -0.7354E-15  0.7330E-01
      3.367 -0.9421E-14  0.7330E-01
      3.412 -0.1060E-12  0.7330E-01
      3.456 -0.1081E-11  0.7330E-01
      3.501 -0.9949E-11  0.7330E-01
      3.545 -0.8265E-10  0.7330E-01
      3.589 -0.6195E-09  0.7330E-01
      3.634 -0.4187E-08  0.7330E-01
      3.678 -0.2550E-07  0.7330E-01
      3.723 -0.1398E-06  0.7330E-01
      3.767 -0.6893E-06  0.7330E-01
      3.811 -0.3053E-05  0.7330E-01
      3.856 -0.1212E-04  0.7330E-01
      3.900 -0.4308E-04  0.7330E-01
      3.945 -0.1365E-03  0.7329E-01
      3.989 -0.3844E-03  0.7327E-01
      4.033 -0.9556E-03  0.7323E-01
      4.078 -0.2076E-02  0.7314E-01
      4.122 -0.3878E-02  0.7297E-01
      4.167 -0.6017E-02  0.7270E-01
      4.211 -0.7127E-02  0.7238E-01
      4.255 -0.4443E-02  0.7218E-01
      4.300  0.5718E-02  0.7244E-01
      4.344  0.2618E-01  0.7360E-01
      4.389  0.5625E-01  0.7610E-01
      4.433  0.8996E-01  0.8009E-01
      4.477  0.1172E+00  0.8530E-01
      4.522  0.1281E+00  0.9099E-01
      4.566  0.1188E+00  0.9627E-01
      4.611  0.9415E-01  0.1004E+00
      4.655  0.6580E-01  0.1034E+00
      4.699  0.4636E-01  0.1054E+00
      4.744  0.4284E-01  0.1073E+00
      4.788  0.5358E-01  0.1097E+00
      4.833  0.6986E-01  0.1128E+00
      4.877  0.8105E-01  0.1164E+00
      4.922  0.8009E-01  0.1200E+00
      4.966  0.6652E-01  0.1229E+00
      5.010  0.4546E-01  0.1249E+00
      5.055  0.2399E-01  0.1260E+00
      5.099  0.7359E-02  0.1263E+00
      5.144 -0.2829E-02  0.1262E+00
      5.188 -0.7940E-02  0.1259E+00
      5.232 -0.1031E-01  0.1254E+00
      5.277 -0.1120E-01  0.1249E+00
      5.321 -0.9515E-02  0.1245E+00
      5.366 -0.1871E-02  0.1244E+00
      5.410  0.1592E-01  0.1251E+00
      5.454  0.4601E-01  0.1271E+00
      5.499  0.8569E-01  0.1309E+00
      5.543  0.1264E+00  0.1366E+00
      5.588  0.1563E+00  0.1435E+00
      5.632  0.1655E+00  0.1509E+00
      5.676  0.1510E+00  0.1576E+00
      5.721  0.1182E+00  0.1628E+00
      5.765  0.7786E-01  0.1663E+00
      5.810  0.4085E-01  0.1681E+00
      5.854  0.1405E-01  0.1687E+00
      5.898 -0.1035E-02  0.1687E+00
      5.943 -0.6822E-02  0.1684E+00
      5.987 -0.7135E-02  0.1680E+00
      6.032 -0.5262E-02  0.1678E+00
      6.076 -0.3171E-02  0.1677E+00
      6.121 -0.1639E-02  0.1676E+00
      6.165 -0.7427E-03  0.1676E+00
      6.209 -0.2983E-03  0.1675E+00
      6.254 -0.1069E-03  0.1675E+00
      6.298 -0.3434E-04  0.1675E+00
      6.343 -0.9910E-05  0.1675E+00
      6.387 -0.2573E-05  0.1675E+00
      6.431 -0.6020E-06  0.1675E+00
      6.476 -0.1270E-06  0.1675E+00
      6.520 -0.2417E-07  0.1675E+00
      6.565 -0.4152E-08  0.1675E+00
      6.609 -0.6441E-09  0.1675E+00
      6.653 -0.9025E-10  0.1675E+00
      6.698 -0.1142E-10  0.1675E+00
      6.742 -0.1307E-11  0.1675E+00
      6.787 -0.1350E-12  0.1675E+00
      6.831 -0.1278E-13  0.1675E+00
      6.875 -0.9948E-15  0.1675E+00
      6.920 -0.1047E-15  0.1675E+00
      6.964  0.0000E+00  0.1675E+00
      7.009  0.0000E+00  0.1675E+00
      7.053  0.0000E+00  0.1675E+00
      7.097  0.0000E+00  0.1675E+00
      7.142  0.0000E+00  0.1675E+00
      7.186  0.0000E+00  0.1675E+00
      7.231  0.0000E+00  0.1675E+00
      7.275  0.0000E+00  0.1675E+00
      7.320  0.0000E+00  0.1675E+00
      7.364  0.0000E+00  0.1675E+00
      7.408  0.0000E+00  0.1675E+00
      7.453  0.0000E+00  0.1675E+00
      7.497  0.0000E+00  0.1675E+00
      7.542  0.0000E+00  0.1675E+00
      7.586  0.0000E+00  0.1675E+00
      7.630  0.0000E+00  0.1675E+00
      7.675  0.0000E+00  0.1675E+00
