 vasp.5.2.2 15Apr09 complex 
 executed on             LinuxIFC date 2013.06.14  22:46:26
 running on    1 nodes
 distr:  one band on    1 nodes,    1 groups


--------------------------------------------------------------------------------------------------------


 INCAR:
 POTCAR:   PAW_GGA Fe 03Mar1998                   
 POTCAR:   PAW_GGA Fe 03Mar1998                   
   VRHFIN =Fe:  d7 s1                                                           
   LEXCH  = 91                                                                  
   EATOM  =   595.5622 eV,   43.7726 Ry                                         
                                                                                
   TITEL  = PAW_GGA Fe 03Mar1998                                                
   LULTRA =        F    use ultrasoft PP ?                                      
   IUNSCR =        1    unscreen: 0-lin 1-nonlin 2-no                           
   RPACOR =    2.000    partial core radius                                     
   POMASS =   55.847; ZVAL   =    8.000    mass and valenz                      
   RCORE  =    2.300    outmost cutoff radius                                   
   RWIGS  =    2.460; RWIGS  =    1.302    wigner-seitz radius (au A)           
   ENMAX  =  267.907; ENMIN  =  200.930 eV                                      
   RCLOC  =    1.701    cutoff for local pot                                    
   LCOR   =        T    correct aug charges                                     
   LPAW   =        T    paw PP                                                  
   EAUG   =  511.368                                                            
   DEXC   =    -.007                                                            
   RMAX   =    2.817    core radius for proj-oper                               
   RAUG   =    1.300    factor for augmentation sphere                          
   RDEP   =    2.442    core radius for depl-charge                             
   QCUT   =   -4.437; QGAM   =    8.875    optimization parameters              
                                                                                
   Description                                                                  
     l     E      TYP  RCUT    TYP  RCUT                                        
     2   .000     23  2.300                                                     
     2   .000     23  2.300                                                     
     0   .000     23  2.300                                                     
     0   .000     23  2.300                                                     
     1  -.200     23  2.300                                                     
     1   .000     23  2.300                                                     
     3   .000      7   .000                                                     
  local pseudopotential read in
  partial core-charges read in
  atomic valenz-charges read in
  non local Contribution for L=           2  read in
    real space projection operators read in
  non local Contribution for L=           2  read in
    real space projection operators read in
  non local Contribution for L=           0  read in
    real space projection operators read in
  non local Contribution for L=           0  read in
    real space projection operators read in
  non local Contribution for L=           1  read in
    real space projection operators read in
  non local Contribution for L=           1  read in
    real space projection operators read in
    PAW grid and wavefunctions read in
 
   number of l-projection  operators is LMAX  =           6
   number of lm-projection operators is LMMAX =          18
 
 PAW_GGA Fe 03Mar1998                   :
 energy of atom  1       EATOM= -595.5622
 kinetic energy error for atom=    0.0239 (will be added to EATOM!!)
 
 
 POSCAR: Fe3                                     
  positions in direct lattice
  No initial velocities read in
 exchange correlation table for  LEXCH =        7
   RHO(1)=    0.500       N(1)  =     2000
   RHO(2)=  100.500       N(2)  =     4000

 VTST: version 2.03d, (02/18/09)

 CHAIN: initializing optimizer
 
 OPT: Using VASP Conjugate-Gradient optimizer
 CHAIN: Read ICHAIN            0
 


--------------------------------------------------------------------------------------------------------


 ion  position               nearest neighbor table
   1  0.000  0.000  0.000-   2 2.54   3 2.54   2 2.54   3 2.54   2 2.54   3 2.54   2 2.54   3 2.54

   2  0.500  0.000  0.500-   1 2.54   3 2.54   1 2.54   3 2.54   3 2.54   3 2.54   1 2.54   1 2.54

   3  0.500  0.500  0.000-   1 2.54   2 2.54   2 2.54   1 2.54   2 2.54   2 2.54   1 2.54   1 2.54

 
  LATTYP: Found a simple cubic cell.
 ALAT       =     3.5850510000
  
  Lattice vectors:
  
 A1 = (   3.5850510000,   0.0000000000,   0.0000000000)
 A2 = (   0.0000000000,   3.5850510000,   0.0000000000)
 A3 = (   0.0000000000,   0.0000000000,   3.5850510000)
 Subroutine PRICEL returns:
 Original cell was already a primitive cell.
 

Analysis of symmetry for initial positions (statically):

 Routine SETGRP: Setting up the symmetry group for a 
 simple cubic supercell.


 Subroutine GETGRP returns: Found 48 space group operations
 (whereof 16 operations were pure point group operations)
 out of a pool of 48 trial point group operations.


The static configuration has the point symmetry D_4h.
 The point group associated with its full space group is O_h .

Analysis of symmetry for dynamics (positions and initial velocities):

 Subroutine DYNSYM returns: Found 48 space group operations
 (whereof 16 operations were pure point group operations)
 out of a pool of 48 trial space group operations
 (whereof 16 operations were pure point group operations)
 and found also     1 'primitive' translations


The dynamic configuration has the point symmetry D_4h.
 The point group associated with its full space group is O_h .
 
 
 KPOINTS: Automatic kpoint scheme                 

Automatic generation of k-mesh.
 
 Subroutine IBZKPT returns following result:
 ===========================================
 
 Found      1 irreducible k-points:
 
 Following reciprocal coordinates:
            Coordinates               Weight
  0.000000  0.000000  0.000000      1.000000
 
 Following cartesian coordinates:
            Coordinates               Weight
  0.000000  0.000000  0.000000      1.000000
 


--------------------------------------------------------------------------------------------------------




 Dimension of arrays:
   k-points           NKPTS =      1   k-points in BZ     NKDIM =      1   number of bands    NBANDS=     16
   number of dos      NEDOS =    301   number of ions     NIONS =      3
   non local maximal  LDIM  =      6   non local SUM 2l+1 LMDIM =     18
   total plane-waves  NPLWV =  13824
   max r-space proj   IRMAX =      1   max aug-charges    IRDMAX=  10886
   dimension x,y,z NGX =    24 NGY =   24 NGZ =   24
   dimension x,y,z NGXF=    48 NGYF=   48 NGZF=   48
   support grid    NGXF=    48 NGYF=   48 NGZF=   48
   ions per type =               3
 NGX,Y,Z   is equivalent  to a cutoff of  11.13, 11.13, 11.13 a.u.
 NGXF,Y,Z  is equivalent  to a cutoff of  22.26, 22.26, 22.26 a.u.


 I would recommend the setting:
   dimension x,y,z NGX =    21 NGY =   21 NGZ =   21
 SYSTEM =  unknown system                          
 POSCAR =  Fe3                                     

 Startparameter for this run:
   NWRITE =      2    write-flag & timer
   PREC   = accura    medium, high low
   ISTART =      0    job   : 0-new  1-cont  2-samecut
   ICHARG =      2    charge: 1-file 2-atom 10-const
   ISPIN  =      1    spin polarized calculation?
   LNONCOLLINEAR =      F non collinear calculations
   LSORBIT =      F    spin-orbit coupling
   INIWAV =      1    electr: 0-lowe 1-rand  2-diag
   LASPH  =      F    aspherical Exc in radial PAW
   METAGGA=      F    non-selfconsistent MetaGGA calc.

 Electronic Relaxation 1
   ENCUT  =  334.9 eV  24.61 Ry    4.96 a.u.   5.35  5.35  5.35*2*pi/ulx,y,z
   ENINI  =  334.9     initial cutoff
   ENAUG  =  511.4 eV  augmentation charge cutoff
   NELM   =     60;   NELMIN=  2; NELMDL= -5     # of ELM steps 
   EDIFF  = 0.1E-03   stopping-criterion for ELM
   LREAL  =      F    real-space projection
   LCOMPAT=      F    compatible to vasp.4.4
   LREAL_COMPAT= F    compatible to vasp.4.5.1-3
   GGA_COMPAT  = T    GGA compatible to vasp.4.4-vasp.4.6
   LMAXPAW     = -100 max onsite density
   LMAXMIX     =    2 max onsite mixed and CHGCAR
   VOSKOWN=      0    Vosko Wilk Nusair interpolation
   ROPT   =    0.00000
 Ionic relaxation
   EDIFFG = 0.1E-02   stopping-criterion for IOM
   NSW    =    191    number of steps for IOM
   NBLOCK =      1;   KBLOCK =    191    inner block; outer block 
   IBRION =      2    ionic relax: 0-MD 1-quasi-New 2-CG
   NFREE  =      1    steps in history (QN), initial steepest desc. (CG)
   ISIF   =      2    stress and relaxation
   IWAVPR =     11    prediction:  0-non 1-charg 2-wave 3-comb
   ISYM   =      2    0-nonsym 1-usesym 2-fastsym
   LCORR  =      T    Harris-Foulkes like correction to forces

   POTIM  = 0.5000    time-step for ionic-motion
   TEIN   =    0.0    initial temperature
   TEBEG  =    0.0;   TEEND  =   0.0 temperature during run
   SMASS  =  -3.00    Nose mass-parameter (am)
   estimated Nose-frequenzy (Omega)   =  0.10E-29 period in steps =****** mass=  -0.294E-27a.u.
   NPACO  =    256;   APACO  = 16.0  distance and # of slots for P.C.
   PSTRESS=    0.0 pullay stress

  Mass of Ions in am
   POMASS =  55.85
  Ionic Valenz
   ZVAL   =   8.00
  Atomic Wigner-Seitz radii
   RWIGS  =  -1.00
   NELECT =      24.0000    total number of electrons
   NUPDOWN=      -1.0000    fix difference up-down

 DOS related values:
   EMIN   =  10.00;   EMAX   =-10.00  energy-range for DOS
   EFERMI =   0.00
   ISMEAR =     1;   SIGMA  =   0.20  broadening in eV -4-tet -1-fermi 0-gaus

 Electronic relaxation 2 (details)
   IALGO  =     38    algorithm
   LDIAG  =      T    sub-space diagonalisation
   IMIX   =      4    mixing-type and parameters
     AMIX     =   0.40;   BMIX     =  1.00
     AMIX_MAG =   1.60;   BMIX_MAG =  1.00
     AMIN     =   0.10
     WC   =   100.;   INIMIX=   1;  MIXPRE=   1

 Intra band minimization:
   WEIMIN = 0.0010     energy-eigenvalue tresh-hold
   EBREAK =  0.16E-05  absolut break condition
   DEPER  =   0.30     relativ break condition  

   TIME   =   0.40     timestep for ELM

  volume/ion in A,a.u.               =      15.36       103.65
  Fermi-wavevector in a.u.,A,eV,Ry     =   1.317194  2.489137 23.606126  1.735001
  Thomas-Fermi vector in A             =   2.447253
 
 Write flags
   LWAVE  =      F    write WAVECAR
   LCHARG =      F    write CHGCAR
   LVTOT  =      F    write LOCPOT, local potential
   LELF   =      F    write electronic localiz. function (ELF)
   LORBIT =      0    0 simple, 1 ext, 2 COOP (PROOUT)


 Dipole corrections
   LMONO  =      F    monopole corrections only (constant potential shift)
   LDIPOL =      F    correct potential (dipole corrections)
   IDIPOL =      0    1-x, 2-y, 3-z, 4-all directions 
   EPSILON=  1.0000000 bulk dielectric constant

 Exchange correlation treatment:
   GGA     =    --    GGA type
   LEXCH   =     7    internal setting for exchange type
   VOSKOWN=      0    Vosko Wilk Nusair interpolation
   LHFCALC =     F    Hartree Fock is set to
   LHFONE  =     F    Hartree Fock one center treatment
   AEXX    =    0.0000 exact exchange contribution

 Linear response parameters
   LEPSILON=     F    determine dielectric tensor
   LRPA    =     F    only Hartree local field effects (RPA)
   LNABLA  =     F    use nabla operator in PAW spheres
   LVEL    =     F    velocity operator in full k-point grid
   LINTERFAST=   F  fast interpolation
   KINTER  =     0    interpolate to denser k-point grid
   CSHIFT  =0.1000    complex shift for real part using Kramers Kronig
   OMEGAMAX=  -1.0    maximum frequency

 Orbital magnetization related:
   ORBITALMAG=     F  switch on orbital magnetization
   LCHIMAG   =     F  perturbation theory with respect to B field



--------------------------------------------------------------------------------------------------------


 conjugate gradient relaxation of ions
 charge density and potential will be updated during run
 non-spin polarized calculation
 Variant of blocked Davidson
 Davidson routine will perform the subspace rotation
 perform sub-space diagonalisation
    after iterative eigenvector-optimisation
 modified Broyden-mixing scheme, WC =      100.0
 initial mixing is a Kerker type mixing with AMIX =  0.4000 and BMIX =      1.0000
 Hartree-type preconditioning will be used
 using additional bands            4
 reciprocal scheme for non local part
 use partial core corrections
 calculate Harris-corrections to forces 
   (improved forces if not selfconsistent)
 use gradient corrections 
 use of overlap-Matrix (Vanderbilt PP)
 Methfessel and Paxton  Order N= 1 SIGMA  =   0.20


--------------------------------------------------------------------------------------------------------


  energy-cutoff  :      334.88
  volume of cell :       46.08
      direct lattice vectors                 reciprocal lattice vectors
     3.585051000  0.000000000  0.000000000     0.278936060  0.000000000  0.000000000
     0.000000000  3.585051000  0.000000000     0.000000000  0.278936060  0.000000000
     0.000000000  0.000000000  3.585051000     0.000000000  0.000000000  0.278936060

  length of vectors
     3.585051000  3.585051000  3.585051000     0.278936060  0.278936060  0.278936060


 
 k-points in units of 2pi/SCALE and weight: Automatic kpoint scheme                 
   0.00000000  0.00000000  0.00000000       1.000
 
 k-points in reciprocal lattice and weights: Automatic kpoint scheme                 
   0.00000000  0.00000000  0.00000000       1.000
 
 position of ions in fractional coordinates (direct lattice) 
   0.00000000  0.00000000  0.00000000
   0.50000000  0.00000000  0.50000000
   0.50000000  0.50000000  0.00000000
 
 position of ions in cartesian coordinates  (Angst):
   0.00000000  0.00000000  0.00000000
   1.79252550  0.00000000  1.79252550
   1.79252550  1.79252550  0.00000000
 


--------------------------------------------------------------------------------------------------------


 k-point  1 :  0.00000.00000.0000  plane waves:     619

 maximum and minimum number of plane-waves per node :     619    619

 maximum number of plane-waves:     619
 maximal index in each direction: 
   IXMAX=  5   IYMAX=  5   IZMAX=  5
   IXMIN= -5   IYMIN= -5   IZMIN= -5

 NGX is ok and might be reduce to  22
 NGY is ok and might be reduce to  22
 NGZ is ok and might be reduce to  22

 serial   3D FFT for wavefunctions
 parallel 3D FFT for charge:
    minimum data exchange during FFTs selected (reduces bandwidth)


 total amount of memory used by VASP on root node  40270. kBytes
========================================================================

   base      :    30000. kBytes
   nonl-proj :      118. kBytes
   fftplans  :     3916. kBytes
   grid      :     6018. kBytes
   one-center:       46. kBytes
   wavefun   :      172. kBytes
 
 Broyden mixing: mesh for mixing (old mesh)
   NGX = 11   NGY = 11   NGZ = 11
  (NGX  = 48   NGY  = 48   NGZ  = 48)
  gives a total of   1331 points

 initial charge density was supplied:
 charge density of overlapping atoms calculated
 number of electron   24.0000000 magnetization 
 keeping initial charge density in first step


--------------------------------------------------------------------------------------------------------


 Maximum index for augmentation-charges        10395 (set IRDMAX)


--------------------------------------------------------------------------------------------------------


 First call to EWALD:  gamma=   0.494
 Maximum number of real-space cells 3x 3x 3
 Maximum number of reciprocal cells 3x 3x 3

    FEWALD:  cpu time    0.01: real time    0.00
   RESPFUN:  cpu time    0.00: real time    0.00


----------------------------------------- Iteration    1(   1)  ---------------------------------------


    POTLOK:  cpu time    0.34: real time    0.26
    SETDIJ:  cpu time    0.04: real time    0.04
     EDDAV:  cpu time    0.47: real time    0.13
       DOS:  cpu time    0.00: real time    0.00
    --------------------------------------------
      LOOP:  cpu time    0.85: real time    0.42

 eigenvalue-minimisations  :    32
 total energy-change (2. order) : 0.1371019E+03  (-0.7955582E+03)
 number of electron   24.0000000 magnetization 
 augmentation part    24.0000000 magnetization 

 Free energy of the ion-electron system (eV)
  ---------------------------------------------------
  alpha Z        PSCENC =       134.15010455
  Ewald energy   TEWEN  =     -1543.28455601
  -1/2 Hartree   DENC   =      -459.34008321
  -exchange  EXHF       =         0.00000000
  -V(xc)+E(xc)   XCENC  =         9.08913340
  PAW double counting   =      1438.89509626    -1462.21758594
  entropy T*S    EENTRO =        -0.06639057
  eigenvalues    EBANDS =       233.26134285
  atomic energy  EATOM  =      1786.61487174
  ---------------------------------------------------
  free energy    TOTEN  =       137.10193308 eV

  energy without entropy =      137.16832365  energy(sigma->0) =      137.12406327


--------------------------------------------------------------------------------------------------------




----------------------------------------- Iteration    1(   2)  ---------------------------------------


     EDDAV:  cpu time    0.58: real time    0.14
       DOS:  cpu time    0.00: real time    0.00
    --------------------------------------------
      LOOP:  cpu time    0.59: real time    0.15

 eigenvalue-minimisations  :    40
 total energy-change (2. order) :-0.1546382E+03  (-0.1488570E+03)
 number of electron   24.0000000 magnetization 
 augmentation part    24.0000000 magnetization 

 Free energy of the ion-electron system (eV)
  ---------------------------------------------------
  alpha Z        PSCENC =       134.15010455
  Ewald energy   TEWEN  =     -1543.28455601
  -1/2 Hartree   DENC   =      -459.34008321
  -exchange  EXHF       =         0.00000000
  -V(xc)+E(xc)   XCENC  =         9.08913340
  PAW double counting   =      1438.89509626    -1462.21758594
  entropy T*S    EENTRO =         0.01944652
  eigenvalues    EBANDS =        78.53729434
  atomic energy  EATOM  =      1786.61487174
  ---------------------------------------------------
  free energy    TOTEN  =       -17.53627835 eV

  energy without entropy =      -17.55572486  energy(sigma->0) =      -17.54276052


--------------------------------------------------------------------------------------------------------




----------------------------------------- Iteration    1(   3)  ---------------------------------------


     EDDAV:  cpu time    0.67: real time    0.17
       DOS:  cpu time    0.00: real time    0.00
    --------------------------------------------
      LOOP:  cpu time    0.68: real time    0.17

 eigenvalue-minimisations  :    48
 total energy-change (2. order) :-0.6992919E+01  (-0.6908939E+01)
 number of electron   24.0000000 magnetization 
 augmentation part    24.0000000 magnetization 

 Free energy of the ion-electron system (eV)
  ---------------------------------------------------
  alpha Z        PSCENC =       134.15010455
  Ewald energy   TEWEN  =     -1543.28455601
  -1/2 Hartree   DENC   =      -459.34008321
  -exchange  EXHF       =         0.00000000
  -V(xc)+E(xc)   XCENC  =         9.08913340
  PAW double counting   =      1438.89509626    -1462.21758594
  entropy T*S    EENTRO =         0.02389029
  eigenvalues    EBANDS =        71.53993108
  atomic energy  EATOM  =      1786.61487174
  ---------------------------------------------------
  free energy    TOTEN  =       -24.52919783 eV

  energy without entropy =      -24.55308813  energy(sigma->0) =      -24.53716127


--------------------------------------------------------------------------------------------------------




----------------------------------------- Iteration    1(   4)  ---------------------------------------


     EDDAV:  cpu time    0.50: real time    0.12
       DOS:  cpu time    0.00: real time    0.00
    --------------------------------------------
      LOOP:  cpu time    0.50: real time    0.13

 eigenvalue-minimisations  :    32
 total energy-change (2. order) :-0.1103645E+00  (-0.1103531E+00)
 number of electron   24.0000000 magnetization 
 augmentation part    24.0000000 magnetization 

 Free energy of the ion-electron system (eV)
  ---------------------------------------------------
  alpha Z        PSCENC =       134.15010455
  Ewald energy   TEWEN  =     -1543.28455601
  -1/2 Hartree   DENC   =      -459.34008321
  -exchange  EXHF       =         0.00000000
  -V(xc)+E(xc)   XCENC  =         9.08913340
  PAW double counting   =      1438.89509626    -1462.21758594
  entropy T*S    EENTRO =         0.02399524
  eigenvalues    EBANDS =        71.42946158
  atomic energy  EATOM  =      1786.61487174
  ---------------------------------------------------
  free energy    TOTEN  =       -24.63956238 eV

  energy without entropy =      -24.66355762  energy(sigma->0) =      -24.64756080


--------------------------------------------------------------------------------------------------------




----------------------------------------- Iteration    1(   5)  ---------------------------------------


     EDDAV:  cpu time    0.75: real time    0.19
       DOS:  cpu time    0.00: real time    0.00
    CHARGE:  cpu time    0.16: real time    0.06
    MIXING:  cpu time    0.01: real time    0.01
    --------------------------------------------
      LOOP:  cpu time    0.92: real time    0.25

 eigenvalue-minimisations  :    56
 total energy-change (2. order) :-0.4883119E-02  (-0.4883065E-02)
 number of electron   24.0000011 magnetization 
 augmentation part    12.5890120 magnetization 

 Broyden mixing:
  rms(total) = 0.72951E+00    rms(broyden)= 0.71052E+00
  rms(prec ) = 0.12706E+01
  weight for this iteration     100.00

 Free energy of the ion-electron system (eV)
  ---------------------------------------------------
  alpha Z        PSCENC =       134.15010455
  Ewald energy   TEWEN  =     -1543.28455601
  -1/2 Hartree   DENC   =      -459.34008321
  -exchange  EXHF       =         0.00000000
  -V(xc)+E(xc)   XCENC  =         9.08913340
  PAW double counting   =      1438.89509626    -1462.21758594
  entropy T*S    EENTRO =         0.02399862
  eigenvalues    EBANDS =        71.42457508
  atomic energy  EATOM  =      1786.61487174
  ---------------------------------------------------
  free energy    TOTEN  =       -24.64444550 eV

  energy without entropy =      -24.66844413  energy(sigma->0) =      -24.65244504


--------------------------------------------------------------------------------------------------------




----------------------------------------- Iteration    1(   6)  ---------------------------------------


    POTLOK:  cpu time    0.25: real time    0.25
    SETDIJ:  cpu time    0.04: real time    0.04
     EDDAV:  cpu time    0.56: real time    0.16
       DOS:  cpu time    0.00: real time    0.00
    CHARGE:  cpu time    0.15: real time    0.06
    MIXING:  cpu time    0.01: real time    0.01
    --------------------------------------------
      LOOP:  cpu time    1.01: real time    0.51

 eigenvalue-minimisations  :    32
 total energy-change (2. order) : 0.8161989E+00  (-0.2891071E+00)
 number of electron   24.0000011 magnetization 
 augmentation part    13.0178306 magnetization 

 Broyden mixing:
  rms(total) = 0.36675E+00    rms(broyden)= 0.36499E+00
  rms(prec ) = 0.53481E+00
  weight for this iteration     100.00

 eigenvalues of (default mixing * dielectric matrix)
  average eigenvalue GAMMA=   1.4069
  1.4069

 Free energy of the ion-electron system (eV)
  ---------------------------------------------------
  alpha Z        PSCENC =       134.15010455
  Ewald energy   TEWEN  =     -1543.28455601
  -1/2 Hartree   DENC   =      -444.23758052
  -exchange  EXHF       =         0.00000000
  -V(xc)+E(xc)   XCENC  =         8.41149441
  PAW double counting   =      1472.20466944    -1492.34668137
  entropy T*S    EENTRO =         0.05953102
  eigenvalues    EBANDS =        54.59990017
  atomic energy  EATOM  =      1786.61487174
  ---------------------------------------------------
  free energy    TOTEN  =       -23.82824657 eV

  energy without entropy =      -23.88777759  energy(sigma->0) =      -23.84809024


--------------------------------------------------------------------------------------------------------




----------------------------------------- Iteration    1(   7)  ---------------------------------------


    POTLOK:  cpu time    0.24: real time    0.25
    SETDIJ:  cpu time    0.04: real time    0.04
     EDDAV:  cpu time    0.55: real time    0.16
       DOS:  cpu time    0.00: real time    0.00
    CHARGE:  cpu time    0.15: real time    0.06
    MIXING:  cpu time    0.01: real time    0.01
    --------------------------------------------
      LOOP:  cpu time    1.00: real time    0.50

 eigenvalue-minimisations  :    32
 total energy-change (2. order) :-0.7934234E-01  (-0.4643621E-02)
 number of electron   24.0000011 magnetization 
 augmentation part    12.9897787 magnetization 

 Broyden mixing:
  rms(total) = 0.19445E+00    rms(broyden)= 0.19437E+00
  rms(prec ) = 0.28958E+00
  weight for this iteration     100.00

 eigenvalues of (default mixing * dielectric matrix)
  average eigenvalue GAMMA=   1.7123
  2.4822  0.9425

 Free energy of the ion-electron system (eV)
  ---------------------------------------------------
  alpha Z        PSCENC =       134.15010455
  Ewald energy   TEWEN  =     -1543.28455601
  -1/2 Hartree   DENC   =      -444.85689007
  -exchange  EXHF       =         0.00000000
  -V(xc)+E(xc)   XCENC  =         8.54542092
  PAW double counting   =      1512.89666065    -1533.69877418
  entropy T*S    EENTRO =         0.03268686
  eigenvalues    EBANDS =        55.69288662
  atomic energy  EATOM  =      1786.61487174
  ---------------------------------------------------
  free energy    TOTEN  =       -23.90758891 eV

  energy without entropy =      -23.94027577  energy(sigma->0) =      -23.91848453


--------------------------------------------------------------------------------------------------------




----------------------------------------- Iteration    1(   8)  ---------------------------------------


    POTLOK:  cpu time    0.28: real time    0.25
    SETDIJ:  cpu time    0.04: real time    0.04
     EDDAV:  cpu time    0.64: real time    0.18
       DOS:  cpu time    0.00: real time    0.00
    CHARGE:  cpu time    0.16: real time    0.06
    MIXING:  cpu time    0.01: real time    0.01
    --------------------------------------------
      LOOP:  cpu time    1.13: real time    0.53

 eigenvalue-minimisations  :    40
 total energy-change (2. order) :-0.4630038E-01  (-0.2120656E-02)
 number of electron   24.0000011 magnetization 
 augmentation part    12.9869536 magnetization 

 Broyden mixing:
  rms(total) = 0.90685E-02    rms(broyden)= 0.89961E-02
  rms(prec ) = 0.21519E-01
  weight for this iteration     100.00

 eigenvalues of (default mixing * dielectric matrix)
  average eigenvalue GAMMA=   1.4996
  2.5431  0.9778  0.9778

 Free energy of the ion-electron system (eV)
  ---------------------------------------------------
  alpha Z        PSCENC =       134.15010455
  Ewald energy   TEWEN  =     -1543.28455601
  -1/2 Hartree   DENC   =      -444.39146146
  -exchange  EXHF       =         0.00000000
  -V(xc)+E(xc)   XCENC  =         8.69713831
  PAW double counting   =      1558.94840650    -1580.08502245
  entropy T*S    EENTRO =         0.02616160
  eigenvalues    EBANDS =        55.37046792
  atomic energy  EATOM  =      1786.61487174
  ---------------------------------------------------
  free energy    TOTEN  =       -23.95388930 eV

  energy without entropy =      -23.98005089  energy(sigma->0) =      -23.96260983


--------------------------------------------------------------------------------------------------------




----------------------------------------- Iteration    1(   9)  ---------------------------------------


    POTLOK:  cpu time    0.32: real time    0.26
    SETDIJ:  cpu time    0.04: real time    0.04
     EDDAV:  cpu time    0.38: real time    0.10
       DOS:  cpu time    0.00: real time    0.00
    CHARGE:  cpu time    0.15: real time    0.06
    MIXING:  cpu time    0.01: real time    0.01
    --------------------------------------------
      LOOP:  cpu time    0.91: real time    0.46

 eigenvalue-minimisations  :    24
 total energy-change (2. order) :-0.1217231E-03  (-0.1158761E-03)
 number of electron   24.0000011 magnetization 
 augmentation part    12.9908202 magnetization 

 Broyden mixing:
  rms(total) = 0.42665E-02    rms(broyden)= 0.42598E-02
  rms(prec ) = 0.10464E-01
  weight for this iteration     100.00

 eigenvalues of (default mixing * dielectric matrix)
  average eigenvalue GAMMA=   1.8118
  2.5086  2.8043  0.9671  0.9671

 Free energy of the ion-electron system (eV)
  ---------------------------------------------------
  alpha Z        PSCENC =       134.15010455
  Ewald energy   TEWEN  =     -1543.28455601
  -1/2 Hartree   DENC   =      -444.22208036
  -exchange  EXHF       =         0.00000000
  -V(xc)+E(xc)   XCENC  =         8.69286393
  PAW double counting   =      1559.52266039    -1580.59803982
  entropy T*S    EENTRO =         0.02620287
  eigenvalues    EBANDS =        55.14396170
  atomic energy  EATOM  =      1786.61487174
  ---------------------------------------------------
  free energy    TOTEN  =       -23.95401102 eV

  energy without entropy =      -23.98021389  energy(sigma->0) =      -23.96274531


--------------------------------------------------------------------------------------------------------




----------------------------------------- Iteration    1(  10)  ---------------------------------------


    POTLOK:  cpu time    0.34: real time    0.26
    SETDIJ:  cpu time    0.04: real time    0.04
     EDDAV:  cpu time    0.30: real time    0.08
       DOS:  cpu time    0.00: real time    0.00
    --------------------------------------------
      LOOP:  cpu time    0.69: real time    0.38

 eigenvalue-minimisations  :    16
 total energy-change (2. order) :-0.7794439E-04  (-0.1536547E-04)
 number of electron   24.0000011 magnetization 
 augmentation part    12.9908202 magnetization 

 Free energy of the ion-electron system (eV)
  ---------------------------------------------------
  alpha Z        PSCENC =       134.15010455
  Ewald energy   TEWEN  =     -1543.28455601
  -1/2 Hartree   DENC   =      -444.20888598
  -exchange  EXHF       =         0.00000000
  -V(xc)+E(xc)   XCENC  =         8.69047789
  PAW double counting   =      1559.01704505    -1580.05304620
  entropy T*S    EENTRO =         0.02621768
  eigenvalues    EBANDS =        55.09368232
  atomic energy  EATOM  =      1786.61487174
  ---------------------------------------------------
  free energy    TOTEN  =       -23.95408897 eV

  energy without entropy =      -23.98030665  energy(sigma->0) =      -23.96282819


--------------------------------------------------------------------------------------------------------




 average (electrostatic) potential at core
  the test charge radii are     1.0103
  (the norm of the test charge is              1.0000)
       1 -44.6539       2 -44.6539       3 -44.6539
 
 
 
 E-fermi :   5.0357     XC(G=0): -11.1876     alpha+bet :-10.0907
   add alpha+bet to get absolut eigen values

 k-point   1 :       0.0000    0.0000    0.0000
  band No.  band energies     occupation 
      1      -3.6473      2.00000
      2       0.0696      2.00000
      3       1.4583      2.00000
      4       1.4583      2.00000
      5       1.4583      2.00000
      6       1.7519      2.00000
      7       1.7519      2.00000
      8       4.5041      2.00111
      9       4.5041      2.00111
     10       4.5041      2.00111
     11       4.8675      1.99945
     12       4.8675      1.99944
     13       5.5847     -0.00072
     14       5.5847     -0.00072
     15       5.5847     -0.00072
     16       5.6748     -0.00006


--------------------------------------------------------------------------------------------------------


 soft charge-density along one line, spin component           1
         0         1         2         3         4         5         6         7         8         9
 total charge-density along one line
 
 pseudopotential strength for first ion, spin component:           1
 -5.752   0.000   0.000   0.000   0.000  -0.614   0.000   0.000
  0.000  -5.331   0.000   0.000   0.000   0.000  -0.733   0.000
  0.000   0.000  -5.546   0.000   0.045   0.000   0.000  -0.671
  0.000   0.000   0.000  -5.752   0.000   0.000   0.000   0.000
  0.000   0.000   0.045   0.000  -5.598   0.000   0.000  -0.012
 -0.614   0.000   0.000   0.000   0.000   0.920   0.000   0.000
  0.000  -0.733   0.000   0.000   0.000   0.000   0.955   0.000
  0.000   0.000  -0.671   0.000  -0.012   0.000   0.000   0.936
  0.000   0.000   0.000  -0.614   0.000   0.000   0.000   0.000
  0.000   0.000  -0.012   0.000  -0.657   0.000   0.000   0.002
  0.000   0.000  -0.019   0.000   0.033   0.000   0.000   0.004
  0.000   0.000   0.003   0.000  -0.004   0.000   0.000  -0.001
  0.000   0.000   0.000   0.000   0.000   0.000   0.000   0.000
  0.000   0.000   0.000   0.000   0.000   0.000   0.000   0.000
  0.000   0.000   0.000   0.000   0.000   0.000   0.000   0.000
  0.000   0.000   0.000   0.000   0.000   0.000   0.000   0.000
  0.000   0.000   0.000   0.000   0.000   0.000   0.000   0.000
  0.000   0.000   0.000   0.000   0.000   0.000   0.000   0.000
 total augmentation occupancy for first ion, spin component:           1
  1.122   0.000   0.000   0.000   0.000   0.382   0.000   0.000   0.000   0.000   0.000   0.000   0.000   0.000   0.000   0.000
  0.000   2.046   0.000   0.000   0.000   0.000  -0.116   0.000   0.000   0.000   0.000   0.000   0.000   0.000   0.000   0.000
  0.000   0.000   1.452   0.000  -0.290   0.000   0.000   0.369   0.000   0.171   0.010  -0.029   0.000   0.000   0.000   0.000
  0.000   0.000   0.000   1.122   0.000   0.000   0.000   0.000   0.382   0.000   0.000   0.000   0.000   0.000   0.000   0.000
  0.000   0.000  -0.290   0.000   1.786   0.000   0.000   0.171   0.000   0.171  -0.017   0.049   0.000   0.000   0.000   0.000
  0.382   0.000   0.000   0.000   0.000   0.170   0.000   0.000   0.000   0.000   0.000   0.000   0.000   0.000   0.000   0.000
  0.000  -0.116   0.000   0.000   0.000   0.000   0.077   0.000   0.000   0.000   0.000   0.000   0.000   0.000   0.000   0.000
  0.000   0.000   0.369   0.000   0.171   0.000   0.000   0.270   0.000  -0.108  -0.067   0.044   0.000   0.000   0.000   0.000
  0.000   0.000   0.000   0.382   0.000   0.000   0.000   0.000   0.170   0.000   0.000   0.000   0.000   0.000   0.000   0.000
  0.000   0.000   0.171   0.000   0.171   0.000   0.000  -0.108   0.000   0.395   0.116  -0.076   0.000   0.000   0.000   0.000
  0.000   0.000   0.010   0.000  -0.017   0.000   0.000  -0.067   0.000   0.116   1.300  -0.502   0.000   0.000   0.000   0.000
  0.000   0.000  -0.029   0.000   0.049   0.000   0.000   0.044   0.000  -0.076  -0.502   0.218   0.000   0.000   0.000   0.000
  0.000   0.000   0.000   0.000   0.000   0.000   0.000   0.000   0.000   0.000   0.000   0.000   0.000   0.000   0.000   0.000
  0.000   0.000   0.000   0.000   0.000   0.000   0.000   0.000   0.000   0.000   0.000   0.000   0.000   0.000   0.000   0.000
  0.000   0.000   0.000   0.000   0.000   0.000   0.000   0.000   0.000   0.000   0.000   0.000   0.000   0.000   0.000   0.000
  0.000   0.000   0.000   0.000   0.000   0.000   0.000   0.000   0.000   0.000   0.000   0.000   0.000   0.000   0.000   0.000
  0.000   0.000   0.000   0.000   0.000   0.000   0.000   0.000   0.000   0.000   0.000   0.000   0.000   0.000   0.000   0.000
  0.000   0.000   0.000   0.000   0.000   0.000   0.000   0.000   0.000   0.000   0.000   0.000   0.000   0.000   0.000   0.000


------------------------ aborting loop because EDIFF is reached ----------------------------------------




--------------------------------------------------------------------------------------------------------



  FREE ENERGIE OF THE ION-ELECTRON SYSTEM (eV)
  ---------------------------------------------------
  free  energy   TOTEN  =       -23.954089 eV

  energy  without entropy=      -23.980307  energy(sigma->0) =      -23.962828
 
    CHARGE:  cpu time    0.11: real time    0.06
    FORLOC:  cpu time    0.01: real time    0.01
    FORNL :  cpu time    0.15: real time    0.15
    STRESS:  cpu time    0.41: real time    0.26
    FORCOR:  cpu time    0.26: real time    0.26
    FORHAR:  cpu time    0.06: real time    0.06
    MIXING:  cpu time    0.01: real time    0.01

  FORCE on cell =-STRESS in cart. coord.  units (eV):
  Direction    XX          YY          ZZ          XY          YZ          ZX
  --------------------------------------------------------------------------------------
  Alpha Z   134.15010   134.15010   134.15010
  Ewald    -514.42836  -514.42836  -514.42836     0.00000     0.00000     0.00000
  Hartree   148.14254   148.14254   148.14254     0.00000     0.00000     0.00000
  E(xc)    -117.66642  -117.66642  -117.66641     0.00000     0.00000     0.00000
  Local     113.22861   113.22861   113.22861     0.00000     0.00000     0.00000
  n-local  -110.40562  -110.40589  -110.40625     0.00047    -0.00002     0.00000
  augment   109.66133   109.66132   109.66136     0.00000     0.00000    -0.00001
  Kinetic   226.04183   226.04188   226.04195    -0.00031    -0.00001     0.00000
  Fock        0.00000     0.00000     0.00000     0.00000     0.00000     0.00000
  -------------------------------------------------------------------------------------
  Total     -11.27621   -11.27621   -11.27621     0.00000     0.00000     0.00000
  in kB    -392.09175  -392.09175  -392.09175     0.00000     0.00000     0.00000
  external pressure =     -392.09 kB  Pullay stress =        0.00 kB


 VOLUME and BASIS-vectors are now :
 -----------------------------------------------------------------------------
  energy-cutoff  :      334.88
  volume of cell :       46.08
      direct lattice vectors                 reciprocal lattice vectors
     3.585051000  0.000000000  0.000000000     0.278936060  0.000000000  0.000000000
     0.000000000  3.585051000  0.000000000     0.000000000  0.278936060  0.000000000
     0.000000000  0.000000000  3.585051000     0.000000000  0.000000000  0.278936060

  length of vectors
     3.585051000  3.585051000  3.585051000     0.278936060  0.278936060  0.278936060


 FORCES acting on ions
    electron-ion (+dipol)            ewald-force                    non-local-force                 convergence-correction
 -----------------------------------------------------------------------------------------------
   0.115E-13 0.283E-13 -.989E-13   -.830E-14 -.516E-14 -.341E-14   0.000E+00 0.000E+00 0.000E+00   -.448E-13 -.358E-13 -.342E-13
   0.236E-12 0.286E-13 -.170E-11   0.492E-14 -.712E-14 0.344E-14   0.000E+00 0.000E+00 0.000E+00   -.455E-13 -.571E-13 0.471E-13
   0.237E-12 -.939E-12 -.202E-11   0.411E-14 0.113E-13 0.120E-14   0.000E+00 0.000E+00 0.000E+00   -.483E-13 -.177E-13 0.199E-13
 -----------------------------------------------------------------------------------------------
   0.484E-12 -.882E-12 -.382E-11   0.733E-15 -.955E-15 0.123E-14   0.000E+00 0.000E+00 0.000E+00   -.139E-12 -.111E-12 0.327E-13
 
 
 POSITION                                       TOTAL-FORCE (eV/Angst)
 -----------------------------------------------------------------------------------
      0.00000      0.00000      0.00000         0.000000      0.000000      0.000000
      1.79253      0.00000      1.79253         0.000000      0.000000      0.000000
      1.79253      1.79253      0.00000         0.000000      0.000000      0.000000
 -----------------------------------------------------------------------------------
    total drift:                                0.000000      0.000000      0.000000


--------------------------------------------------------------------------------------------------------


    POTLOK:  cpu time    0.38: real time    0.29


--------------------------------------------------------------------------------------------------------


  FORCES: max atom, RMS     0.000000    0.000000
  FORCE total and by dimension    0.000000    0.000000


--------------------------------------------------------------------------------------------------------


  
 reached required accuracy - stopping structural energy minimisation
     LOOP+:  cpu time    9.78: real time    4.65
    4ORBIT:  cpu time    0.00: real time    0.00

 total amount of memory used by VASP on root node  40270. kBytes
========================================================================

   base      :    30000. kBytes
   nonl-proj :      118. kBytes
   fftplans  :     3916. kBytes
   grid      :     6018. kBytes
   one-center:       46. kBytes
   wavefun   :      172. kBytes
 
  
  
 General timing and accounting informations for this job:
 ========================================================
  
                  Total CPU time used (sec):       10.396
                            User time (sec):       10.314
                          System time (sec):        0.082
                         Elapsed time (sec):        5.092
  
                   Maximum memory used (kb):           0.
                   Average memory used (kb):           0.
  
                          Minor page faults:        16324
                          Major page faults:           46
                 Voluntary context switches:          296
