 vasp.5.2.2 15Apr09 complex 
 executed on             LinuxIFC date 2011.07.27  18:17:27
 running on    1 nodes
 distr:  one band on    1 nodes,    1 groups


--------------------------------------------------------------------------------------------------------


 INCAR:
 POTCAR:   PAW_GGA Fe_pv 06May1998                
 POTCAR:   PAW_GGA Fe_pv 06May1998                
   VRHFIN =Fe:  3pd7s1                                                          
   LEXCH  = 91                                                                  
   EATOM  =  2459.3729 eV,  180.7588 Ry                                         
                                                                                
   TITEL  = PAW_GGA Fe_pv 06May1998                                             
   LULTRA =        F    use ultrasoft PP ?                                      
   IUNSCR =        1    unscreen: 0-lin 1-nonlin 2-no                           
   RPACOR =    1.750    partial core radius                                     
   POMASS =   55.847; ZVAL   =   14.000    mass and valenz                      
   RCORE  =    2.200    outmost cutoff radius                                   
   RWIGS  =    2.200; RWIGS  =    1.164    wigner-seitz radius (au A)           
   ENMAX  =  293.258; ENMIN  =  219.944 eV                                      
   RCLOC  =    1.701    cutoff for local pot                                    
   LCOR   =        T    correct aug charges                                     
   LPAW   =        T    paw PP                                                  
   EAUG   =  578.342                                                            
   DEXC   =     .000                                                            
   RMAX   =    2.692    core radius for proj-oper                               
   RAUG   =    1.300    factor for augmentation sphere                          
   RDEP   =    2.296    core radius for depl-charge                             
   QCUT   =   -4.643; QGAM   =    9.285    optimization parameters              
                                                                                
   Description                                                                  
     l     E      TYP  RCUT    TYP  RCUT                                        
     1   .000     23  2.000                                                     
     1  -.400     23  2.000                                                     
     2   .000     23  2.200                                                     
     2   .000     23  2.200                                                     
     0   .000     23  2.000                                                     
     0  2.000     23  2.000                                                     
     3   .000      7   .000                                                     
  local pseudopotential read in
  partial core-charges read in
  atomic valenz-charges read in
  non local Contribution for L=           1  read in
    real space projection operators read in
  non local Contribution for L=           1  read in
    real space projection operators read in
  non local Contribution for L=           2  read in
    real space projection operators read in
  non local Contribution for L=           2  read in
    real space projection operators read in
  non local Contribution for L=           0  read in
    real space projection operators read in
  non local Contribution for L=           0  read in
    real space projection operators read in
    PAW grid and wavefunctions read in
 
   number of l-projection  operators is LMAX  =           6
   number of lm-projection operators is LMMAX =          18
 
 PAW_GGA Fe_pv 06May1998                :
 energy of atom  1       EATOM=-2459.3729
 kinetic energy error for atom=    0.0151 (will be added to EATOM!!)
 
 
 POSCAR: BCC iron                                
  positions in direct lattice
  No initial velocities read in
 exchange correlation table for  LEXCH =        7
   RHO(1)=    0.500       N(1)  =     2000
   RHO(2)=  100.500       N(2)  =     4000

 VTST: version 2.03d, (02/18/09)

 CHAIN: initializing optimizer
 
 OPT: Using VASP Conjugate-Gradient optimizer
 CHAIN: Read ICHAIN            0
 


--------------------------------------------------------------------------------------------------------


 ion  position               nearest neighbor table
   1  0.000  0.000  0.000-
   2  0.500  0.500  0.500-
 
  LATTYP: Found a simple cubic cell.
 ALAT       =     3.4932977964
  
  Lattice vectors:
  
 A1 = (   3.4932977964,   0.0000000000,   0.0000000000)
 A2 = (   0.0000000000,   3.4932977964,   0.0000000000)
 A3 = (   0.0000000000,   0.0000000000,   3.4932977964)
 Subroutine PRICEL returns following result:
 
  LATTYP: Found a body centered cubic cell.
 ALAT       =     3.4932977964
  
  Lattice vectors:
  
 A1 = (   1.7466488982,   1.7466488982,   1.7466488982)
 A2 = (   1.7466488982,  -1.7466488982,  -1.7466488982)
 A3 = (  -1.7466488982,   1.7466488982,  -1.7466488982)
 
   2 primitive cells build up your supercell.
 

Analysis of symmetry for initial positions (statically):

 Routine SETGRP: Setting up the symmetry group for a 
 simple cubic supercell.


 Subroutine GETGRP returns: Found 48 space group operations
 (whereof 48 operations were pure point group operations)
 out of a pool of 48 trial point group operations.


The static configuration has the point symmetry O_h .

Analysis of symmetry for dynamics (positions and initial velocities):

 Subroutine DYNSYM returns: Found 48 space group operations
 (whereof 48 operations were pure point group operations)
 out of a pool of 48 trial space group operations
 (whereof 48 operations were pure point group operations)
 and found also     2 'primitive' translations


The dynamic configuration has the point symmetry O_h .

Analysis of magnetic symmetry:

 Subroutine MAGSYM returns: Found 48 space group operations
 (whereof 48 operations were pure point group operations)
 out of a pool of 48 trial space group operations
 (whereof 48 operations were pure point group operations)
 and found also     2 'primitive' translations


The magnetic configuration has the point symmetry O_h .
 
 
 KPOINTS: FCC test                                

Automatic generation of k-mesh.
 
 Subroutine IBZKPT returns following result:
 ===========================================
 
 Found      4 irreducible k-points:
 
 Following reciprocal coordinates:
            Coordinates               Weight
  0.000000  0.000000  0.000000      1.000000
  0.333333  0.000000  0.000000      6.000000
  0.333333  0.333333  0.000000     12.000000
  0.333333  0.333333  0.333333      8.000000
 
 Following cartesian coordinates:
            Coordinates               Weight
  0.000000  0.000000  0.000000      1.000000
  0.095421  0.000000  0.000000      6.000000
  0.095421  0.095421  0.000000     12.000000
  0.095421  0.095421  0.095421      8.000000
 


--------------------------------------------------------------------------------------------------------




 Dimension of arrays:
   k-points           NKPTS =      4   k-points in BZ     NKDIM =      4   number of bands    NBANDS=     19
   number of dos      NEDOS =    301   number of ions     NIONS =      2
   non local maximal  LDIM  =      6   non local SUM 2l+1 LMDIM =     18
   total plane-waves  NPLWV =   5832
   max r-space proj   IRMAX =      1   max aug-charges    IRDMAX=   4251
   dimension x,y,z NGX =    18 NGY =   18 NGZ =   18
   dimension x,y,z NGXF=    36 NGYF=   36 NGZF=   36
   support grid    NGXF=    36 NGYF=   36 NGZF=   36
   ions per type =               2
 NGX,Y,Z   is equivalent  to a cutoff of   8.57,  8.57,  8.57 a.u.
 NGXF,Y,Z  is equivalent  to a cutoff of  17.13, 17.13, 17.13 a.u.


 I would recommend the setting:
   dimension x,y,z NGX =    18 NGY =   18 NGZ =   18
 SYSTEM =  unknown system                          
 POSCAR =  BCC iron                                

 Startparameter for this run:
   NWRITE =      2    write-flag & timer
   PREC   = normal    medium, high low
   ISTART =      0    job   : 0-new  1-cont  2-samecut
   ICHARG =      2    charge: 1-file 2-atom 10-const
   ISPIN  =      2    spin polarized calculation?
   LNONCOLLINEAR =      F non collinear calculations
   LSORBIT =      F    spin-orbit coupling
   INIWAV =      1    electr: 0-lowe 1-rand  2-diag
   LASPH  =      F    aspherical Exc in radial PAW
   METAGGA=      F    non-selfconsistent MetaGGA calc.

 Electronic Relaxation 1
   ENCUT  =  450.0 eV  33.07 Ry    5.75 a.u.   6.04  6.04  6.04*2*pi/ulx,y,z
   ENINI  =  450.0     initial cutoff
   ENAUG  =  578.3 eV  augmentation charge cutoff
   NELM   =     60;   NELMIN=  2; NELMDL= -5     # of ELM steps 
   EDIFF  = 0.1E-03   stopping-criterion for ELM
   LREAL  =      F    real-space projection
   LCOMPAT=      F    compatible to vasp.4.4
   LREAL_COMPAT= F    compatible to vasp.4.5.1-3
   GGA_COMPAT  = T    GGA compatible to vasp.4.4-vasp.4.6
   LMAXPAW     = -100 max onsite density
   LMAXMIX     =    2 max onsite mixed and CHGCAR
   VOSKOWN=      1    Vosko Wilk Nusair interpolation
   ROPT   =    0.00000
 Ionic relaxation
   EDIFFG = 0.1E-02   stopping-criterion for IOM
   NSW    =    191    number of steps for IOM
   NBLOCK =      1;   KBLOCK =    191    inner block; outer block 
   IBRION =      2    ionic relax: 0-MD 1-quasi-New 2-CG
   NFREE  =      1    steps in history (QN), initial steepest desc. (CG)
   ISIF   =      3    stress and relaxation
   IWAVPR =     11    prediction:  0-non 1-charg 2-wave 3-comb
   ISYM   =      2    0-nonsym 1-usesym 2-fastsym
   LCORR  =      T    Harris-Foulkes like correction to forces

   POTIM  = 0.5000    time-step for ionic-motion
   TEIN   =    0.0    initial temperature
   TEBEG  =    0.0;   TEEND  =   0.0 temperature during run
   SMASS  =  -3.00    Nose mass-parameter (am)
   estimated Nose-frequenzy (Omega)   =  0.10E-29 period in steps =****** mass=  -0.279E-27a.u.
   NPACO  =    256;   APACO  = 16.0  distance and # of slots for P.C.
   PSTRESS=    0.0 pullay stress

  Mass of Ions in am
   POMASS =  55.85
  Ionic Valenz
   ZVAL   =  14.00
  Atomic Wigner-Seitz radii
   RWIGS  =  -1.00
   NELECT =      28.0000    total number of electrons
   NUPDOWN=      -1.0000    fix difference up-down

 DOS related values:
   EMIN   =  10.00;   EMAX   =-10.00  energy-range for DOS
   EFERMI =   0.00
   ISMEAR =     1;   SIGMA  =   0.20  broadening in eV -4-tet -1-fermi 0-gaus

 Electronic relaxation 2 (details)
   IALGO  =     38    algorithm
   LDIAG  =      T    sub-space diagonalisation
   IMIX   =      4    mixing-type and parameters
     AMIX     =   0.40;   BMIX     =  1.00
     AMIX_MAG =   1.60;   BMIX_MAG =  1.00
     AMIN     =   0.10
     WC   =   100.;   INIMIX=   1;  MIXPRE=   1

 Intra band minimization:
   WEIMIN = 0.0010     energy-eigenvalue tresh-hold
   EBREAK =  0.13E-05  absolut break condition
   DEPER  =   0.30     relativ break condition  

   TIME   =   0.40     timestep for ELM

  volume/ion in A,a.u.               =      21.31       143.84
  Fermi-wavevector in a.u.,A,eV,Ry     =   1.423067  2.689206 27.553411  2.025119
  Thomas-Fermi vector in A             =   2.543704
 
 Write flags
   LWAVE  =      F    write WAVECAR
   LCHARG =      F    write CHGCAR
   LVTOT  =      F    write LOCPOT, local potential
   LELF   =      F    write electronic localiz. function (ELF)
   LORBIT =      0    0 simple, 1 ext, 2 COOP (PROOUT)


 Dipole corrections
   LMONO  =      F    monopole corrections only (constant potential shift)
   LDIPOL =      F    correct potential (dipole corrections)
   IDIPOL =      0    1-x, 2-y, 3-z, 4-all directions 
   EPSILON=  1.0000000 bulk dielectric constant

 Exchange correlation treatment:
   GGA     =    --    GGA type
   LEXCH   =     7    internal setting for exchange type
   VOSKOWN=      1    Vosko Wilk Nusair interpolation
   LHFCALC =     F    Hartree Fock is set to
   LHFONE  =     F    Hartree Fock one center treatment
   AEXX    =    0.0000 exact exchange contribution

 Linear response parameters
   LEPSILON=     F    determine dielectric tensor
   LRPA    =     F    only Hartree local field effects (RPA)
   LNABLA  =     F    use nabla operator in PAW spheres
   LVEL    =     F    velocity operator in full k-point grid
   LINTERFAST=   F  fast interpolation
   KINTER  =     0    interpolate to denser k-point grid
   CSHIFT  =0.1000    complex shift for real part using Kramers Kronig
   OMEGAMAX=  -1.0    maximum frequency

 Orbital magnetization related:
   ORBITALMAG=     F  switch on orbital magnetization
   LCHIMAG   =     F  perturbation theory with respect to B field



--------------------------------------------------------------------------------------------------------


 conjugate gradient relaxation of ions
 charge density and potential will be updated during run
 spin polarized calculation
 Variant of blocked Davidson
 Davidson routine will perform the subspace rotation
 perform sub-space diagonalisation
    after iterative eigenvector-optimisation
 modified Broyden-mixing scheme, WC =      100.0
 initial mixing is a Kerker type mixing with AMIX =  0.4000 and BMIX =      1.0000
 Hartree-type preconditioning will be used
 using additional bands            5
 reciprocal scheme for non local part
 use partial core corrections
 calculate Harris-corrections to forces 
   (improved forces if not selfconsistent)
 use gradient corrections 
 use of overlap-Matrix (Vanderbilt PP)
 Methfessel and Paxton  Order N= 1 SIGMA  =   0.20


--------------------------------------------------------------------------------------------------------


  energy-cutoff  :      450.00
  volume of cell :       42.63
      direct lattice vectors                 reciprocal lattice vectors
     3.493297796  0.000000000  0.000000000     0.286262454  0.000000000  0.000000000
     0.000000000  3.493297796  0.000000000     0.000000000  0.286262454  0.000000000
     0.000000000  0.000000000  3.493297796     0.000000000  0.000000000  0.286262454

  length of vectors
     3.493297796  3.493297796  3.493297796     0.286262454  0.286262454  0.286262454


 
 k-points in units of 2pi/SCALE and weight: FCC test                                
   0.00000000  0.00000000  0.00000000       0.037
   0.09542082  0.00000000  0.00000000       0.222
   0.09542082  0.09542082  0.00000000       0.444
   0.09542082  0.09542082  0.09542082       0.296
 
 k-points in reciprocal lattice and weights: FCC test                                
   0.00000000  0.00000000  0.00000000       0.037
   0.33333333  0.00000000  0.00000000       0.222
   0.33333333  0.33333333  0.00000000       0.444
   0.33333333  0.33333333  0.33333333       0.296
 
 position of ions in fractional coordinates (direct lattice) 
   0.00000000  0.00000000  0.00000000
   0.50000000  0.50000000  0.50000000
 
 position of ions in cartesian coordinates  (Angst):
   0.00000000  0.00000000  0.00000000
   1.74664890  1.74664890  1.74664890
 


--------------------------------------------------------------------------------------------------------


 k-point  1 :  0.00000.00000.0000  plane waves:     925
 k-point  2 :  0.33330.00000.0000  plane waves:     920
 k-point  3 :  0.33330.33330.0000  plane waves:     916
 k-point  4 :  0.33330.33330.3333  plane waves:     931

 maximum and minimum number of plane-waves per node :     931    916

 maximum number of plane-waves:     931
 maximal index in each direction: 
   IXMAX=  6   IYMAX=  6   IZMAX=  6
   IXMIN= -6   IYMIN= -6   IZMIN= -6

 WARNING: aliasing errors must be expected set NGX to  26 to avoid them
 WARNING: aliasing errors must be expected set NGY to  26 to avoid them
 WARNING: aliasing errors must be expected set NGZ to  26 to avoid them
 aliasing errors are usually negligible using standard VASP settings
 and one can safely disregard these warnings

 serial   3D FFT for wavefunctions
 parallel 3D FFT for charge:
    minimum data exchange during FFTs selected (reduces bandwidth)


 total amount of memory used by VASP on root node  38636. kBytes
========================================================================

   base      :    30000. kBytes
   nonl-proj :      566. kBytes
   fftplans  :     1676. kBytes
   grid      :     3981. kBytes
   one-center:       62. kBytes
   wavefun   :     2351. kBytes
 
 Broyden mixing: mesh for mixing (old mesh)
   NGX = 13   NGY = 13   NGZ = 13
  (NGX  = 36   NGY  = 36   NGZ  = 36)
  gives a total of   2197 points

 initial charge density was supplied:
 charge density of overlapping atoms calculated
 number of electron   28.0000000 magnetization    2.0000000
 keeping initial charge density in first step


--------------------------------------------------------------------------------------------------------


 Maximum index for augmentation-charges         3887 (set IRDMAX)


--------------------------------------------------------------------------------------------------------


 First call to EWALD:  gamma=   0.507
 Maximum number of real-space cells 3x 3x 3
 Maximum number of reciprocal cells 3x 3x 3

    FEWALD:  cpu time    0.02: real time    0.01
   RESPFUN:  cpu time    0.00: real time    0.00


----------------------------------------- Iteration    1(   1)  ---------------------------------------


    POTLOK:  cpu time    1.21: real time    1.07
    SETDIJ:  cpu time    0.07: real time    0.07
     EDDAV:  cpu time    3.35: real time    0.84
       DOS:  cpu time    0.00: real time    0.00
    --------------------------------------------
      LOOP:  cpu time    4.64: real time    1.98

 eigenvalue-minimisations  :   336
 total energy-change (2. order) : 0.2594393E+03  (-0.1654324E+04)
 number of electron   28.0000000 magnetization    2.0000000
 augmentation part    28.0000000 magnetization    2.0000000

 Free energy of the ion-electron system (eV)
  ---------------------------------------------------
  alpha Z        PSCENC =       183.76330879
  Ewald energy   TEWEN  =     -2940.26485349
  -1/2 Hartree   DENC   =     -1569.51160269
  -exchange  EXHF       =         0.00000000
  -V(xc)+E(xc)   XCENC  =       139.35362341
  PAW double counting   =      3673.84789434    -3852.64987285
  entropy T*S    EENTRO =         0.00360637
  eigenvalues    EBANDS =      -293.81844998
  atomic energy  EATOM  =      4918.71561013
  ---------------------------------------------------
  free energy    TOTEN  =       259.43926404 eV

  energy without entropy =      259.43565767  energy(sigma->0) =      259.43806192


--------------------------------------------------------------------------------------------------------




----------------------------------------- Iteration    1(   2)  ---------------------------------------


     EDDAV:  cpu time    3.08: real time    0.77
       DOS:  cpu time    0.00: real time    0.00
    --------------------------------------------
      LOOP:  cpu time    3.09: real time    0.77

 eigenvalue-minimisations  :   304
 total energy-change (2. order) :-0.2609794E+03  (-0.2568131E+03)
 number of electron   28.0000000 magnetization    2.0000000
 augmentation part    28.0000000 magnetization    2.0000000

 Free energy of the ion-electron system (eV)
  ---------------------------------------------------
  alpha Z        PSCENC =       183.76330879
  Ewald energy   TEWEN  =     -2940.26485349
  -1/2 Hartree   DENC   =     -1569.51160269
  -exchange  EXHF       =         0.00000000
  -V(xc)+E(xc)   XCENC  =       139.35362341
  PAW double counting   =      3673.84789434    -3852.64987285
  entropy T*S    EENTRO =        -0.00161991
  eigenvalues    EBANDS =      -554.79261316
  atomic energy  EATOM  =      4918.71561013
  ---------------------------------------------------
  free energy    TOTEN  =        -1.54012542 eV

  energy without entropy =       -1.53850551  energy(sigma->0) =       -1.53958545


--------------------------------------------------------------------------------------------------------




----------------------------------------- Iteration    1(   3)  ---------------------------------------


     EDDAV:  cpu time    3.25: real time    0.81
       DOS:  cpu time    0.00: real time    0.00
    --------------------------------------------
      LOOP:  cpu time    3.26: real time    0.82

 eigenvalue-minimisations  :   355
 total energy-change (2. order) :-0.1177828E+02  (-0.1017729E+02)
 number of electron   28.0000000 magnetization    2.0000000
 augmentation part    28.0000000 magnetization    2.0000000

 Free energy of the ion-electron system (eV)
  ---------------------------------------------------
  alpha Z        PSCENC =       183.76330879
  Ewald energy   TEWEN  =     -2940.26485349
  -1/2 Hartree   DENC   =     -1569.51160269
  -exchange  EXHF       =         0.00000000
  -V(xc)+E(xc)   XCENC  =       139.35362341
  PAW double counting   =      3673.84789434    -3852.64987285
  entropy T*S    EENTRO =         0.02558931
  eigenvalues    EBANDS =      -566.59810223
  atomic energy  EATOM  =      4918.71561013
  ---------------------------------------------------
  free energy    TOTEN  =       -13.31840527 eV

  energy without entropy =      -13.34399458  energy(sigma->0) =      -13.32693504


--------------------------------------------------------------------------------------------------------




----------------------------------------- Iteration    1(   4)  ---------------------------------------


     EDDAV:  cpu time    3.14: real time    0.79
       DOS:  cpu time    0.01: real time    0.00
    --------------------------------------------
      LOOP:  cpu time    3.16: real time    0.79

 eigenvalue-minimisations  :   338
 total energy-change (2. order) :-0.4997510E+00  (-0.4936118E+00)
 number of electron   28.0000000 magnetization    2.0000000
 augmentation part    28.0000000 magnetization    2.0000000

 Free energy of the ion-electron system (eV)
  ---------------------------------------------------
  alpha Z        PSCENC =       183.76330879
  Ewald energy   TEWEN  =     -2940.26485349
  -1/2 Hartree   DENC   =     -1569.51160269
  -exchange  EXHF       =         0.00000000
  -V(xc)+E(xc)   XCENC  =       139.35362341
  PAW double counting   =      3673.84789434    -3852.64987285
  entropy T*S    EENTRO =         0.02801780
  eigenvalues    EBANDS =      -567.10028175
  atomic energy  EATOM  =      4918.71561013
  ---------------------------------------------------
  free energy    TOTEN  =       -13.81815630 eV

  energy without entropy =      -13.84617410  energy(sigma->0) =      -13.82749556


--------------------------------------------------------------------------------------------------------




----------------------------------------- Iteration    1(   5)  ---------------------------------------


     EDDAV:  cpu time    3.62: real time    0.90
       DOS:  cpu time    0.01: real time    0.00
    CHARGE:  cpu time    0.17: real time    0.08
    MIXING:  cpu time    0.00: real time    0.00
    --------------------------------------------
      LOOP:  cpu time    3.81: real time    0.99

 eigenvalue-minimisations  :   409
 total energy-change (2. order) :-0.2033936E-01  (-0.2032582E-01)
 number of electron   27.9999436 magnetization    4.6468698
 augmentation part    15.7972699 magnetization    3.2949725

 Broyden mixing:
  rms(total) = 0.16532E+01    rms(broyden)= 0.16527E+01
  rms(prec ) = 0.33572E+01
  weight for this iteration     100.00

 Free energy of the ion-electron system (eV)
  ---------------------------------------------------
  alpha Z        PSCENC =       183.76330879
  Ewald energy   TEWEN  =     -2940.26485349
  -1/2 Hartree   DENC   =     -1569.51160269
  -exchange  EXHF       =         0.00000000
  -V(xc)+E(xc)   XCENC  =       139.35362341
  PAW double counting   =      3673.84789434    -3852.64987285
  entropy T*S    EENTRO =         0.02783971
  eigenvalues    EBANDS =      -567.12044302
  atomic energy  EATOM  =      4918.71561013
  ---------------------------------------------------
  free energy    TOTEN  =       -13.83849566 eV

  energy without entropy =      -13.86633537  energy(sigma->0) =      -13.84777556


--------------------------------------------------------------------------------------------------------




----------------------------------------- Iteration    1(   6)  ---------------------------------------


    POTLOK:  cpu time    1.09: real time    1.09
    SETDIJ:  cpu time    0.07: real time    0.07
     EDDAV:  cpu time    3.92: real time    0.98
       DOS:  cpu time    0.01: real time    0.00
    CHARGE:  cpu time    0.24: real time    0.08
    MIXING:  cpu time    0.00: real time    0.01
    --------------------------------------------
      LOOP:  cpu time    5.33: real time    2.23

 eigenvalue-minimisations  :   414
 total energy-change (2. order) :-0.1209432E+01  (-0.3591525E+01)
 number of electron   27.9999396 magnetization    5.1772208
 augmentation part    18.1259013 magnetization    3.8749324

 Broyden mixing:
  rms(total) = 0.11660E+01    rms(broyden)= 0.11656E+01
  rms(prec ) = 0.25874E+01
  weight for this iteration     100.00

 eigenvalues of (default mixing * dielectric matrix)
  average eigenvalue GAMMA=   0.8310
  0.8310

 Free energy of the ion-electron system (eV)
  ---------------------------------------------------
  alpha Z        PSCENC =       183.76330879
  Ewald energy   TEWEN  =     -2940.26485349
  -1/2 Hartree   DENC   =     -1471.69720368
  -exchange  EXHF       =         0.00000000
  -V(xc)+E(xc)   XCENC  =       136.54549710
  PAW double counting   =      3490.75341394    -3661.09425766
  entropy T*S    EENTRO =        -0.00479473
  eigenvalues    EBANDS =      -671.76464834
  atomic energy  EATOM  =      4918.71561013
  ---------------------------------------------------
  free energy    TOTEN  =       -15.04792793 eV

  energy without entropy =      -15.04313320  energy(sigma->0) =      -15.04632969


--------------------------------------------------------------------------------------------------------




----------------------------------------- Iteration    1(   7)  ---------------------------------------


    POTLOK:  cpu time    1.09: real time    1.09
    SETDIJ:  cpu time    0.07: real time    0.07
     EDDAV:  cpu time    3.61: real time    0.91
       DOS:  cpu time    0.00: real time    0.00
    CHARGE:  cpu time    0.21: real time    0.08
    MIXING:  cpu time    0.01: real time    0.01
    --------------------------------------------
      LOOP:  cpu time    4.99: real time    2.15

 eigenvalue-minimisations  :   375
 total energy-change (2. order) : 0.1595842E+01  (-0.7987640E+00)
 number of electron   27.9999406 magnetization    6.3735519
 augmentation part    16.9920407 magnetization    5.0530315

 Broyden mixing:
  rms(total) = 0.38477E+00    rms(broyden)= 0.38412E+00
  rms(prec ) = 0.46461E+00
  weight for this iteration     100.00

 eigenvalues of (default mixing * dielectric matrix)
  average eigenvalue GAMMA=   1.0777
  0.5422  1.6133

 Free energy of the ion-electron system (eV)
  ---------------------------------------------------
  alpha Z        PSCENC =       183.76330879
  Ewald energy   TEWEN  =     -2940.26485349
  -1/2 Hartree   DENC   =     -1515.27871890
  -exchange  EXHF       =         0.00000000
  -V(xc)+E(xc)   XCENC  =       138.70895036
  PAW double counting   =      3571.77248411    -3750.06919478
  entropy T*S    EENTRO =        -0.00822624
  eigenvalues    EBANDS =      -620.79144583
  atomic energy  EATOM  =      4918.71561013
  ---------------------------------------------------
  free energy    TOTEN  =       -13.45208586 eV

  energy without entropy =      -13.44385961  energy(sigma->0) =      -13.44934377


--------------------------------------------------------------------------------------------------------




----------------------------------------- Iteration    1(   8)  ---------------------------------------


    POTLOK:  cpu time    1.12: real time    1.09
    SETDIJ:  cpu time    0.07: real time    0.07
     EDDAV:  cpu time    3.83: real time    0.96
       DOS:  cpu time    0.01: real time    0.00
    CHARGE:  cpu time    0.24: real time    0.08
    MIXING:  cpu time    0.01: real time    0.01
    --------------------------------------------
      LOOP:  cpu time    5.28: real time    2.21

 eigenvalue-minimisations  :   405
 total energy-change (2. order) :-0.9911330E-01  (-0.8465278E-01)
 number of electron   27.9999401 magnetization    6.0151313
 augmentation part    16.9241626 magnetization    4.7861319

 Broyden mixing:
  rms(total) = 0.29730E+00    rms(broyden)= 0.29700E+00
  rms(prec ) = 0.41879E+00
  weight for this iteration     100.00

 eigenvalues of (default mixing * dielectric matrix)
  average eigenvalue GAMMA=   0.8383
  1.3130  0.6010  0.6010

 Free energy of the ion-electron system (eV)
  ---------------------------------------------------
  alpha Z        PSCENC =       183.76330879
  Ewald energy   TEWEN  =     -2940.26485349
  -1/2 Hartree   DENC   =     -1509.82856131
  -exchange  EXHF       =         0.00000000
  -V(xc)+E(xc)   XCENC  =       139.68682748
  PAW double counting   =      3561.45037155    -3743.20351457
  entropy T*S    EENTRO =         0.00346952
  eigenvalues    EBANDS =      -623.87385726
  atomic energy  EATOM  =      4918.71561013
  ---------------------------------------------------
  free energy    TOTEN  =       -13.55119915 eV

  energy without entropy =      -13.55466867  energy(sigma->0) =      -13.55235566


--------------------------------------------------------------------------------------------------------




----------------------------------------- Iteration    1(   9)  ---------------------------------------


    POTLOK:  cpu time    1.16: real time    1.06
    SETDIJ:  cpu time    0.07: real time    0.07
     EDDAV:  cpu time    3.76: real time    0.95
       DOS:  cpu time    0.00: real time    0.00
    CHARGE:  cpu time    0.24: real time    0.08
    MIXING:  cpu time    0.01: real time    0.01
    --------------------------------------------
      LOOP:  cpu time    5.24: real time    2.16

 eigenvalue-minimisations  :   394
 total energy-change (2. order) :-0.7569590E-01  (-0.9064395E-02)
 number of electron   27.9999402 magnetization    6.0385879
 augmentation part    16.9802080 magnetization    4.7399995

 Broyden mixing:
  rms(total) = 0.62173E-01    rms(broyden)= 0.62168E-01
  rms(prec ) = 0.17818E+00
  weight for this iteration     100.00

 eigenvalues of (default mixing * dielectric matrix)
  average eigenvalue GAMMA=   0.8886
  0.5987  0.5987  1.2810  1.0758

 Free energy of the ion-electron system (eV)
  ---------------------------------------------------
  alpha Z        PSCENC =       183.76330879
  Ewald energy   TEWEN  =     -2940.26485349
  -1/2 Hartree   DENC   =     -1507.48873749
  -exchange  EXHF       =         0.00000000
  -V(xc)+E(xc)   XCENC  =       139.20977342
  PAW double counting   =      3557.50158775    -3739.20520855
  entropy T*S    EENTRO =        -0.00085441
  eigenvalues    EBANDS =      -625.85752121
  atomic energy  EATOM  =      4918.71561013
  ---------------------------------------------------
  free energy    TOTEN  =       -13.62689505 eV

  energy without entropy =      -13.62604064  energy(sigma->0) =      -13.62661024


--------------------------------------------------------------------------------------------------------




----------------------------------------- Iteration    1(  10)  ---------------------------------------


    POTLOK:  cpu time    1.16: real time    1.07
    SETDIJ:  cpu time    0.07: real time    0.07
     EDDAV:  cpu time    4.06: real time    1.02
       DOS:  cpu time    0.01: real time    0.00
    CHARGE:  cpu time    0.24: real time    0.08
    MIXING:  cpu time    0.01: real time    0.01
    --------------------------------------------
      LOOP:  cpu time    5.56: real time    2.24

 eigenvalue-minimisations  :   437
 total energy-change (2. order) : 0.6337198E-02  (-0.4914547E-02)
 number of electron   27.9999399 magnetization    6.0066225
 augmentation part    17.0564719 magnetization    4.6668403

 Broyden mixing:
  rms(total) = 0.33495E-01    rms(broyden)= 0.33494E-01
  rms(prec ) = 0.70623E-01
  weight for this iteration     100.00

 eigenvalues of (default mixing * dielectric matrix)
  average eigenvalue GAMMA=   1.1334
  2.3640  1.3762  0.6905  0.6905  0.5455

 Free energy of the ion-electron system (eV)
  ---------------------------------------------------
  alpha Z        PSCENC =       183.76330879
  Ewald energy   TEWEN  =     -2940.26485349
  -1/2 Hartree   DENC   =     -1501.09048933
  -exchange  EXHF       =         0.00000000
  -V(xc)+E(xc)   XCENC  =       138.92077112
  PAW double counting   =      3548.31545701    -3731.72815388
  entropy T*S    EENTRO =        -0.00144540
  eigenvalues    EBANDS =      -630.25076281
  atomic energy  EATOM  =      4918.71561013
  ---------------------------------------------------
  free energy    TOTEN  =       -13.62055785 eV

  energy without entropy =      -13.61911245  energy(sigma->0) =      -13.62007605


--------------------------------------------------------------------------------------------------------




----------------------------------------- Iteration    1(  11)  ---------------------------------------


    POTLOK:  cpu time    1.24: real time    1.08
    SETDIJ:  cpu time    0.07: real time    0.07
     EDDAV:  cpu time    3.66: real time    0.92
       DOS:  cpu time    0.00: real time    0.00
    CHARGE:  cpu time    0.24: real time    0.08
    MIXING:  cpu time    0.01: real time    0.01
    --------------------------------------------
      LOOP:  cpu time    5.23: real time    2.16

 eigenvalue-minimisations  :   384
 total energy-change (2. order) :-0.4498132E-03  (-0.4474201E-03)
 number of electron   27.9999400 magnetization    6.0127406
 augmentation part    17.0394118 magnetization    4.6744699

 Broyden mixing:
  rms(total) = 0.14528E-01    rms(broyden)= 0.14528E-01
  rms(prec ) = 0.29579E-01
  weight for this iteration     100.00

 eigenvalues of (default mixing * dielectric matrix)
  average eigenvalue GAMMA=   1.0572
  2.3780  1.2918  0.7571  0.7571  0.5796  0.5796

 Free energy of the ion-electron system (eV)
  ---------------------------------------------------
  alpha Z        PSCENC =       183.76330879
  Ewald energy   TEWEN  =     -2940.26485349
  -1/2 Hartree   DENC   =     -1501.67257507
  -exchange  EXHF       =         0.00000000
  -V(xc)+E(xc)   XCENC  =       138.93528504
  PAW double counting   =      3550.82088987    -3734.42874988
  entropy T*S    EENTRO =        -0.00131871
  eigenvalues    EBANDS =      -629.48860436
  atomic energy  EATOM  =      4918.71561013
  ---------------------------------------------------
  free energy    TOTEN  =       -13.62100766 eV

  energy without entropy =      -13.61968896  energy(sigma->0) =      -13.62056809


--------------------------------------------------------------------------------------------------------




----------------------------------------- Iteration    1(  12)  ---------------------------------------


    POTLOK:  cpu time    1.17: real time    1.08
    SETDIJ:  cpu time    0.07: real time    0.07
     EDDAV:  cpu time    3.49: real time    0.88
       DOS:  cpu time    0.00: real time    0.00
    --------------------------------------------
      LOOP:  cpu time    4.74: real time    2.03

 eigenvalue-minimisations  :   359
 total energy-change (2. order) : 0.1573227E-04  (-0.9921465E-04)
 number of electron   27.9999400 magnetization    6.0127406
 augmentation part    17.0394118 magnetization    4.6744699

 Free energy of the ion-electron system (eV)
  ---------------------------------------------------
  alpha Z        PSCENC =       183.76330879
  Ewald energy   TEWEN  =     -2940.26485349
  -1/2 Hartree   DENC   =     -1502.18913352
  -exchange  EXHF       =         0.00000000
  -V(xc)+E(xc)   XCENC  =       138.97636732
  PAW double counting   =      3552.49830471    -3736.06724153
  entropy T*S    EENTRO =        -0.00136087
  eigenvalues    EBANDS =      -629.05199348
  atomic energy  EATOM  =      4918.71561013
  ---------------------------------------------------
  free energy    TOTEN  =       -13.62099193 eV

  energy without entropy =      -13.61963106  energy(sigma->0) =      -13.62053831


--------------------------------------------------------------------------------------------------------




 average (electrostatic) potential at core
  the test charge radii are     0.9500
  (the norm of the test charge is              1.0000)
       1 -49.7579       2 -49.7579
 
 
 
 E-fermi :   1.4420     XC(G=0): -10.3167     alpha+bet : -6.9644
   add alpha+bet to get absolut eigen values

 spin component 1

 k-point   1 :       0.0000    0.0000    0.0000
  band No.  band energies     occupation 
      1     -53.3230      1.00000
      2     -53.3230      1.00000
      3     -53.3230      1.00000
      4     -53.2934      1.00000
      5     -53.2934      1.00000
      6     -53.2934      1.00000
      7      -4.5019      1.00000
      8      -1.9823      1.00000
      9      -1.9823      1.00000
     10      -1.2085      1.00000
     11      -1.2085      1.00000
     12      -1.2085      1.00000
     13      -0.7166      1.00000
     14      -0.7166      1.00000
     15      -0.3194      1.00000
     16      -0.3194      1.00000
     17      -0.3194      1.00000
     18       7.3070      0.00000
     19       7.3070      0.00000

 k-point   2 :       0.3333    0.0000    0.0000
  band No.  band energies     occupation 
      1     -53.3184      1.00000
      2     -53.3153      1.00000
      3     -53.3153      1.00000
      4     -53.3040      1.00000
      5     -53.3005      1.00000
      6     -53.3005      1.00000
      7      -3.1374      1.00000
      8      -1.7271      1.00000
      9      -1.6477      1.00000
     10      -1.1474      1.00000
     11      -1.1474      1.00000
     12      -1.0122      1.00000
     13      -0.9852      1.00000
     14      -0.7441      1.00000
     15      -0.7441      1.00000
     16      -0.5822      1.00000
     17      -0.5404      1.00000
     18       1.9878     -0.00039
     19       9.2912      0.00000

 k-point   3 :       0.3333    0.3333    0.0000
  band No.  band energies     occupation 
      1     -53.3288      1.00000
      2     -53.3217      1.00000
      3     -53.3110      1.00000
      4     -53.3040      1.00000
      5     -53.3002      1.00000
      6     -53.2932      1.00000
      7      -2.3513      1.00000
      8      -1.8714      1.00000
      9      -1.4838      1.00000
     10      -1.3097      1.00000
     11      -1.2007      1.00000
     12      -0.8358      1.00000
     13      -0.7970      1.00000
     14      -0.6881      1.00000
     15      -0.6302      1.00000
     16      -0.4961      1.00000
     17      -0.2480      1.00000
     18       2.9131      0.00000
     19       4.1324      0.00000

 k-point   4 :       0.3333    0.3333    0.3333
  band No.  band energies     occupation 
      1     -53.3232      1.00000
      2     -53.3197      1.00000
      3     -53.3197      1.00000
      4     -53.3018      1.00000
      5     -53.3018      1.00000
      6     -53.2984      1.00000
      7      -1.6728      1.00000
      8      -1.5483      1.00000
      9      -1.5144      1.00000
     10      -1.5144      1.00000
     11      -1.3333      1.00000
     12      -1.3333      1.00000
     13      -0.6929      1.00000
     14      -0.6929      1.00000
     15      -0.6274      1.00000
     16      -0.6274      1.00000
     17       1.0822      1.01448
     18       4.9122      0.00000
     19       4.9122      0.00000

 spin component 2

 k-point   1 :       0.0000    0.0000    0.0000
  band No.  band energies     occupation 
      1     -49.8526      1.00000
      2     -49.8526      1.00000
      3     -49.8526      1.00000
      4     -49.8173      1.00000
      5     -49.8173      1.00000
      6     -49.8173      1.00000
      7      -4.4101      1.00000
      8       0.4291      1.00000
      9       0.4291      1.00000
     10       1.6430     -0.02566
     11       1.6430     -0.02566
     12       1.6430     -0.02566
     13       2.4775      0.00000
     14       2.4775      0.00000
     15       2.8125      0.00000
     16       2.8125      0.00000
     17       2.8125      0.00000
     18       7.5364      0.00000
     19       7.5364      0.00000

 k-point   2 :       0.3333    0.0000    0.0000
  band No.  band energies     occupation 
      1     -49.8475      1.00000
      2     -49.8434      1.00000
      3     -49.8434      1.00000
      4     -49.8302      1.00000
      5     -49.8258      1.00000
      6     -49.8258      1.00000
      7      -3.0053      1.00000
      8       0.0133      1.00000
      9       0.9569      1.00161
     10       1.6558     -0.03089
     11       1.6558     -0.03089
     12       1.9344     -0.00137
     13       1.9911     -0.00036
     14       2.1259     -0.00001
     15       2.1259     -0.00001
     16       2.5197      0.00000
     17       2.6200      0.00000
     18       3.4092      0.00000
     19       9.8132      0.00000

 k-point   3 :       0.3333    0.3333    0.0000
  band No.  band energies     occupation 
      1     -49.8600      1.00000
      2     -49.8516      1.00000
      3     -49.8383      1.00000
      4     -49.8299      1.00000
      5     -49.8255      1.00000
      6     -49.8171      1.00000
      7      -1.7697      1.00000
      8       0.1559      1.00000
      9       1.0263      1.00615
     10       1.2159      1.03390
     11       1.3569      0.82642
     12       1.4045      0.65550
     13       2.1384      0.00000
     14       2.3735      0.00000
     15       2.5382      0.00000
     16       2.5643      0.00000
     17       2.9070      0.00000
     18       3.7913      0.00000
     19       5.5761      0.00000

 k-point   4 :       0.3333    0.3333    0.3333
  band No.  band energies     occupation 
      1     -49.8534      1.00000
      2     -49.8490      1.00000
      3     -49.8490      1.00000
      4     -49.8275      1.00000
      5     -49.8275      1.00000
      6     -49.8233      1.00000
      7      -0.6472      1.00000
      8       0.7040      1.00000
      9       0.8953      1.00038
     10       0.8953      1.00038
     11       1.0032      1.00407
     12       1.0032      1.00407
     13       2.5116      0.00000
     14       2.5116      0.00000
     15       2.5224      0.00000
     16       2.5224      0.00000
     17       3.4041      0.00000
     18       5.8208      0.00000
     19       5.8209      0.00000


--------------------------------------------------------------------------------------------------------


 soft charge-density along one line, spin component           1
         0         1         2         3         4         5         6         7         8         9
 total charge-density along one line
 
 soft charge-density along one line, spin component           2
         0         1         2         3         4         5         6         7         8         9
 total charge-density along one line
 
 pseudopotential strength for first ion, spin component:           1
-56.991   0.000   0.000  29.822   0.000   0.000   0.000   0.000
  0.000 -56.991   0.000   0.000  29.822   0.000   0.000   0.000
  0.000   0.000 -56.991   0.000   0.000  29.822   0.000   0.000
 29.822   0.000   0.000 -11.130   0.000   0.000   0.000   0.000
  0.000  29.822   0.000   0.000 -11.130   0.000   0.000   0.000
  0.000   0.000  29.822   0.000   0.000 -11.130   0.000   0.000
  0.000   0.000   0.000   0.000   0.000   0.000 -10.284   0.000
  0.000   0.000   0.000   0.000   0.000   0.000   0.000 -10.284
  0.000   0.000   0.000   0.000   0.000   0.000   0.000   0.000
  0.000   0.000   0.000   0.000   0.000   0.000   0.000   0.000
  0.000   0.000   0.000   0.000   0.000   0.000   0.000   0.000
  0.000   0.000   0.000   0.000   0.000   0.000   0.259   0.000
  0.000   0.000   0.000   0.000   0.000   0.000   0.000   0.259
  0.000   0.000   0.000   0.000   0.000   0.000   0.000   0.000
  0.000   0.000   0.000   0.000   0.000   0.000   0.000   0.000
  0.000   0.000   0.000   0.000   0.000   0.000   0.000   0.000
  0.000   0.000   0.000   0.000   0.000   0.000   0.000   0.000
  0.000   0.000   0.000   0.000   0.000   0.000   0.000   0.000
 pseudopotential strength for first ion, spin component:           2
-54.368   0.000   0.000  27.806   0.000   0.000   0.000   0.000
  0.000 -54.368   0.000   0.000  27.806   0.000   0.000   0.000
  0.000   0.000 -54.368   0.000   0.000  27.806   0.000   0.000
 27.806   0.000   0.000  -9.699   0.000   0.000   0.000   0.000
  0.000  27.806   0.000   0.000  -9.699   0.000   0.000   0.000
  0.000   0.000  27.806   0.000   0.000  -9.699   0.000   0.000
  0.000   0.000   0.000   0.000   0.000   0.000  -8.119   0.000
  0.000   0.000   0.000   0.000   0.000   0.000   0.000  -8.119
  0.000   0.000   0.000   0.000   0.000   0.000   0.000   0.000
  0.000   0.000   0.000   0.000   0.000   0.000   0.000   0.000
  0.000   0.000   0.000   0.000   0.000   0.000   0.000   0.000
  0.000   0.000   0.000   0.000   0.000   0.000  -0.248   0.000
  0.000   0.000   0.000   0.000   0.000   0.000   0.000  -0.248
  0.000   0.000   0.000   0.000   0.000   0.000   0.000   0.000
  0.000   0.000   0.000   0.000   0.000   0.000   0.000   0.000
  0.000   0.000   0.000   0.000   0.000   0.000   0.000   0.000
  0.000   0.000   0.000   0.000   0.000   0.000   0.000   0.000
  0.000   0.000   0.000   0.000   0.000   0.000   0.000   0.000
 total augmentation occupancy for first ion, spin component:           1
  1.990   0.000   0.000   0.012   0.000   0.000   0.000   0.000   0.000   0.000   0.000   0.000   0.000   0.000   0.000   0.000
  0.000   1.990   0.000   0.000   0.012   0.000   0.000   0.000   0.000   0.000   0.000   0.000   0.000   0.000   0.000   0.000
  0.000   0.000   1.990   0.000   0.000   0.012   0.000   0.000   0.000   0.000   0.000   0.000   0.000   0.000   0.000   0.000
  0.012   0.000   0.000   0.094   0.000   0.000   0.000   0.000   0.000   0.000   0.000   0.000   0.000   0.000   0.000   0.000
  0.000   0.012   0.000   0.000   0.094   0.000   0.000   0.000   0.000   0.000   0.000   0.000   0.000   0.000   0.000   0.000
  0.000   0.000   0.012   0.000   0.000   0.094   0.000   0.000   0.000   0.000   0.000   0.000   0.000   0.000   0.000   0.000
  0.000   0.000   0.000   0.000   0.000   0.000   1.328   0.000   0.000   0.000   0.000  -0.134   0.000   0.000   0.000   0.000
  0.000   0.000   0.000   0.000   0.000   0.000   0.000   1.328   0.000   0.000   0.000   0.000  -0.134   0.000   0.000   0.000
  0.000   0.000   0.000   0.000   0.000   0.000   0.000   0.000   1.215   0.000   0.000   0.000   0.000  -0.152   0.000   0.000
  0.000   0.000   0.000   0.000   0.000   0.000   0.000   0.000   0.000   1.328   0.000   0.000   0.000   0.000  -0.134   0.000
  0.000   0.000   0.000   0.000   0.000   0.000   0.000   0.000   0.000   0.000   1.215   0.000   0.000   0.000   0.000  -0.152
  0.000   0.000   0.000   0.000   0.000   0.000  -0.134   0.000   0.000   0.000   0.000   0.084   0.000   0.000   0.000   0.000
  0.000   0.000   0.000   0.000   0.000   0.000   0.000  -0.134   0.000   0.000   0.000   0.000   0.084   0.000   0.000   0.000
  0.000   0.000   0.000   0.000   0.000   0.000   0.000   0.000  -0.152   0.000   0.000   0.000   0.000   0.080   0.000   0.000
  0.000   0.000   0.000   0.000   0.000   0.000   0.000   0.000   0.000  -0.134   0.000   0.000   0.000   0.000   0.084   0.000
  0.000   0.000   0.000   0.000   0.000   0.000   0.000   0.000   0.000   0.000  -0.152   0.000   0.000   0.000   0.000   0.080
  0.000   0.000   0.000   0.000   0.000   0.000   0.000   0.000   0.000   0.000   0.000   0.000   0.000   0.000   0.000   0.000
  0.000   0.000   0.000   0.000   0.000   0.000   0.000   0.000   0.000   0.000   0.000   0.000   0.000   0.000   0.000   0.000
 total augmentation occupancy for first ion, spin component:           2
 -0.014   0.000   0.000  -0.019   0.000   0.000   0.000   0.000   0.000   0.000   0.000   0.000   0.000   0.000   0.000   0.000
  0.000  -0.014   0.000   0.000  -0.019   0.000   0.000   0.000   0.000   0.000   0.000   0.000   0.000   0.000   0.000   0.000
  0.000   0.000  -0.014   0.000   0.000  -0.019   0.000   0.000   0.000   0.000   0.000   0.000   0.000   0.000   0.000   0.000
 -0.019   0.000   0.000  -0.020   0.000   0.000   0.000   0.000   0.000   0.000   0.000   0.000   0.000   0.000   0.000   0.000
  0.000  -0.019   0.000   0.000  -0.020   0.000   0.000   0.000   0.000   0.000   0.000   0.000   0.000   0.000   0.000   0.000
  0.000   0.000  -0.019   0.000   0.000  -0.020   0.000   0.000   0.000   0.000   0.000   0.000   0.000   0.000   0.000   0.000
  0.000   0.000   0.000   0.000   0.000   0.000   0.600   0.000   0.000   0.000   0.000  -0.271   0.000   0.000   0.000   0.000
  0.000   0.000   0.000   0.000   0.000   0.000   0.000   0.600   0.000   0.000   0.000   0.000  -0.271   0.000   0.000   0.000
  0.000   0.000   0.000   0.000   0.000   0.000   0.000   0.000   0.703   0.000   0.000   0.000   0.000  -0.280   0.000   0.000
  0.000   0.000   0.000   0.000   0.000   0.000   0.000   0.000   0.000   0.600   0.000   0.000   0.000   0.000  -0.271   0.000
  0.000   0.000   0.000   0.000   0.000   0.000   0.000   0.000   0.000   0.000   0.703   0.000   0.000   0.000   0.000  -0.280
  0.000   0.000   0.000   0.000   0.000   0.000  -0.271   0.000   0.000   0.000   0.000   0.050   0.000   0.000   0.000   0.000
  0.000   0.000   0.000   0.000   0.000   0.000   0.000  -0.271   0.000   0.000   0.000   0.000   0.050   0.000   0.000   0.000
  0.000   0.000   0.000   0.000   0.000   0.000   0.000   0.000  -0.280   0.000   0.000   0.000   0.000   0.043   0.000   0.000
  0.000   0.000   0.000   0.000   0.000   0.000   0.000   0.000   0.000  -0.271   0.000   0.000   0.000   0.000   0.050   0.000
  0.000   0.000   0.000   0.000   0.000   0.000   0.000   0.000   0.000   0.000  -0.280   0.000   0.000   0.000   0.000   0.043
  0.000   0.000   0.000   0.000   0.000   0.000   0.000   0.000   0.000   0.000   0.000   0.000   0.000   0.000   0.000   0.000
  0.000   0.000   0.000   0.000   0.000   0.000   0.000   0.000   0.000   0.000   0.000   0.000   0.000   0.000   0.000   0.000


------------------------ aborting loop because EDIFF is reached ----------------------------------------




--------------------------------------------------------------------------------------------------------



  FREE ENERGIE OF THE ION-ELECTRON SYSTEM (eV)
  ---------------------------------------------------
  free  energy   TOTEN  =       -13.620992 eV

  energy  without entropy=      -13.619631  energy(sigma->0) =      -13.620538
 
    CHARGE:  cpu time    0.22: real time    0.08
    FORLOC:  cpu time    0.00: real time    0.00
    FORNL :  cpu time    0.20: real time    0.20
    STRESS:  cpu time    1.04: real time    0.31
    FORCOR:  cpu time    1.08: real time    1.08
    FORHAR:  cpu time    0.02: real time    0.02
    MIXING:  cpu time    0.02: real time    0.01

  FORCE on cell =-STRESS in cart. coord.  units (eV):
  Direction    XX          YY          ZZ          XY          YZ          ZX
  --------------------------------------------------------------------------------------
  Alpha Z   183.76331   183.76331   183.76331
  Ewald    -980.08821  -980.08821  -980.08821     0.00000     0.00000     0.00000
  Hartree   500.79466   500.79466   500.79466     0.00000     0.00000     0.00000
  E(xc)    -179.19240  -179.19240  -179.19240     0.00000     0.00000     0.00000
  Local     204.84411   204.84411   204.84411     0.00000     0.00000     0.00000
  n-local  -150.46117  -150.52949  -149.28581     2.36607     0.64450     0.64456
  augment   139.81802   139.81802   139.81808     0.00000    -0.00002    -0.00003
  Kinetic   273.76017   273.53996   271.64744     1.60258     0.53893     0.53877
  Fock        0.00000     0.00000     0.00000     0.00000     0.00000     0.00000
  -------------------------------------------------------------------------------------
  Total      -7.17012    -7.17012    -7.17012     0.00000     0.00000     0.00000
  in kB    -269.48231  -269.48231  -269.48231     0.00000     0.00000     0.00000
  external pressure =     -269.48 kB  Pullay stress =        0.00 kB


 VOLUME and BASIS-vectors are now :
 -----------------------------------------------------------------------------
  energy-cutoff  :      450.00
  volume of cell :       42.63
      direct lattice vectors                 reciprocal lattice vectors
     3.493297796  0.000000000  0.000000000     0.286262454  0.000000000  0.000000000
     0.000000000  3.493297796  0.000000000     0.000000000  0.286262454  0.000000000
     0.000000000  0.000000000  3.493297796     0.000000000  0.000000000  0.286262454

  length of vectors
     3.493297796  3.493297796  3.493297796     0.286262454  0.286262454  0.286262454


 FORCES acting on ions
    electron-ion (+dipol)            ewald-force                    non-local-force                 convergence-correction
 -----------------------------------------------------------------------------------------------
   0.281E-12 0.303E-12 -.576E-12   0.919E-14 -.697E-14 -.367E-14   -.529E-22 0.000E+00 -.265E-22   0.219E-13 0.250E-13 0.251E-12
   0.137E-11 -.221E-11 -.143E-12   -.626E-14 0.403E-14 0.725E-14   -.265E-22 0.000E+00 0.000E+00   0.928E-13 0.933E-13 0.322E-12
 -----------------------------------------------------------------------------------------------
   0.165E-11 -.191E-11 -.719E-12   0.293E-14 -.294E-14 0.358E-14   -.794E-22 0.000E+00 -.265E-22   0.115E-12 0.118E-12 0.573E-12
 
 
 POSITION                                       TOTAL-FORCE (eV/Angst)
 -----------------------------------------------------------------------------------
      0.00000      0.00000      0.00000         0.000000      0.000000      0.000000
      1.74665      1.74665      1.74665         0.000000      0.000000      0.000000
 -----------------------------------------------------------------------------------
    total drift:                                0.000000      0.000000      0.000000


--------------------------------------------------------------------------------------------------------


    POTLOK:  cpu time    1.29: real time    1.13


--------------------------------------------------------------------------------------------------------


  FORCES: max atom, RMS     0.000000    0.000000
  FORCE total and by dimension    0.000000    0.000000


--------------------------------------------------------------------------------------------------------


    WAVPRE:  cpu time    0.01: real time    0.01
    FEWALD:  cpu time    0.00: real time    0.00
    GENKIN:  cpu time    0.00: real time    0.00
    ORTHCH:  cpu time    0.12: real time    0.03
     LOOP+:  cpu time   58.43: real time   23.48
   RESPFUN:  cpu time    0.01: real time    0.00


----------------------------------------- Iteration    2(   1)  ---------------------------------------


    POTLOK:  cpu time    1.22: real time    1.06
    SETDIJ:  cpu time    0.08: real time    0.08
     EDDAV:  cpu time    3.09: real time    0.78
       DOS:  cpu time    0.00: real time    0.00
    CHARGE:  cpu time    0.25: real time    0.08
    MIXING:  cpu time    0.00: real time    0.00
    --------------------------------------------
      LOOP:  cpu time    4.65: real time    2.01

 eigenvalue-minimisations  :   304
 total energy-change (2. order) :-0.2365668E+03  (-0.2852654E+03)
 number of electron   27.9999885 magnetization   -0.3552125
 augmentation part     9.2763287 magnetization   -0.9578000

 Broyden mixing:
  rms(total) = 0.11859E+02    rms(broyden)= 0.11859E+02
  rms(prec ) = 0.27556E+02
  weight for this iteration     100.00

 Free energy of the ion-electron system (eV)
  ---------------------------------------------------
  alpha Z        PSCENC =       324.83886426
  Ewald energy   TEWEN  =     -3555.13567751
  -1/2 Hartree   DENC   =     -1816.44976148
  -exchange  EXHF       =         0.00000000
  -V(xc)+E(xc)   XCENC  =       172.13845807
  PAW double counting   =      3553.62901449    -3737.16441445
  entropy T*S    EENTRO =        -0.02342256
  eigenvalues    EBANDS =      -110.73652484
  atomic energy  EATOM  =      4918.71561013
  ---------------------------------------------------
  free energy    TOTEN  =      -250.18785389 eV

  energy without entropy =     -250.16443133  energy(sigma->0) =     -250.18004637


--------------------------------------------------------------------------------------------------------




----------------------------------------- Iteration    2(   2)  ---------------------------------------


    POTLOK:  cpu time    1.09: real time    1.09
    SETDIJ:  cpu time    0.08: real time    0.08
     EDDAV:  cpu time    3.34: real time    0.84
       DOS:  cpu time    0.00: real time    0.00
    CHARGE:  cpu time    0.25: real time    0.09
    MIXING:  cpu time    0.00: real time    0.01
    --------------------------------------------
      LOOP:  cpu time    4.77: real time    2.10

 eigenvalue-minimisations  :   336
 total energy-change (2. order) : 0.2261355E+03  (-0.1067904E+03)
 number of electron   27.9999782 magnetization   -3.9531477
 augmentation part    17.7910086 magnetization   -3.4120207

 Broyden mixing:
  rms(total) = 0.25703E+01    rms(broyden)= 0.25701E+01
  rms(prec ) = 0.46578E+01
  weight for this iteration     100.00

 eigenvalues of (default mixing * dielectric matrix)
  average eigenvalue GAMMA=   1.0198
  1.0198

 Free energy of the ion-electron system (eV)
  ---------------------------------------------------
  alpha Z        PSCENC =       324.83886426
  Ewald energy   TEWEN  =     -3555.13567751
  -1/2 Hartree   DENC   =     -1120.57874791
  -exchange  EXHF       =         0.00000000
  -V(xc)+E(xc)   XCENC  =       139.95413948
  PAW double counting   =      2991.83538045    -3124.68409498
  entropy T*S    EENTRO =        -0.01770755
  eigenvalues    EBANDS =      -598.98007560
  atomic energy  EATOM  =      4918.71561013
  ---------------------------------------------------
  free energy    TOTEN  =       -24.05230923 eV

  energy without entropy =      -24.03460168  energy(sigma->0) =      -24.04640672


--------------------------------------------------------------------------------------------------------




----------------------------------------- Iteration    2(   3)  ---------------------------------------


    POTLOK:  cpu time    1.09: real time    1.09
    SETDIJ:  cpu time    0.08: real time    0.08
     EDDAV:  cpu time    3.27: real time    0.82
       DOS:  cpu time    0.00: real time    0.00
    CHARGE:  cpu time    0.25: real time    0.09
    MIXING:  cpu time    0.01: real time    0.01
    --------------------------------------------
      LOOP:  cpu time    4.70: real time    2.08

 eigenvalue-minimisations  :   329
 total energy-change (2. order) : 0.3719763E+01  (-0.4923354E+01)
 number of electron   27.9999799 magnetization   -5.4582110
 augmentation part    16.6791744 magnetization   -4.4646453

 Broyden mixing:
  rms(total) = 0.17767E+01    rms(broyden)= 0.17767E+01
  rms(prec ) = 0.30038E+01
  weight for this iteration     100.00

 eigenvalues of (default mixing * dielectric matrix)
  average eigenvalue GAMMA=   1.1431
  0.7632  1.5231

 Free energy of the ion-electron system (eV)
  ---------------------------------------------------
  alpha Z        PSCENC =       324.83886426
  Ewald energy   TEWEN  =     -3555.13567751
  -1/2 Hartree   DENC   =     -1157.33801530
  -exchange  EXHF       =         0.00000000
  -V(xc)+E(xc)   XCENC  =       141.55590376
  PAW double counting   =      3298.54110110    -3460.04044645
  entropy T*S    EENTRO =         0.00204012
  eigenvalues    EBANDS =      -531.47192663
  atomic energy  EATOM  =      4918.71561013
  ---------------------------------------------------
  free energy    TOTEN  =       -20.33254651 eV

  energy without entropy =      -20.33458663  energy(sigma->0) =      -20.33322655


--------------------------------------------------------------------------------------------------------




----------------------------------------- Iteration    2(   4)  ---------------------------------------


    POTLOK:  cpu time    1.15: real time    1.09
    SETDIJ:  cpu time    0.08: real time    0.08
     EDDAV:  cpu time    3.67: real time    0.92
       DOS:  cpu time    0.00: real time    0.00
    CHARGE:  cpu time    0.18: real time    0.08
    MIXING:  cpu time    0.01: real time    0.01
    --------------------------------------------
      LOOP:  cpu time    5.10: real time    2.18

 eigenvalue-minimisations  :   386
 total energy-change (2. order) : 0.3890585E+01  (-0.2749985E+00)
 number of electron   27.9999792 magnetization   -5.4619327
 augmentation part    17.2660706 magnetization   -4.3213385

 Broyden mixing:
  rms(total) = 0.69447E+00    rms(broyden)= 0.69447E+00
  rms(prec ) = 0.11781E+01
  weight for this iteration     100.00

 eigenvalues of (default mixing * dielectric matrix)
  average eigenvalue GAMMA=   1.2483
  2.1079  0.9496  0.6873

 Free energy of the ion-electron system (eV)
  ---------------------------------------------------
  alpha Z        PSCENC =       324.83886426
  Ewald energy   TEWEN  =     -3555.13567751
  -1/2 Hartree   DENC   =     -1110.85398386
  -exchange  EXHF       =         0.00000000
  -V(xc)+E(xc)   XCENC  =       140.40684699
  PAW double counting   =      3614.15540037    -3796.36427028
  entropy T*S    EENTRO =        -0.00411830
  eigenvalues    EBANDS =      -552.20063301
  atomic energy  EATOM  =      4918.71561013
  ---------------------------------------------------
  free energy    TOTEN  =       -16.44196122 eV

  energy without entropy =      -16.43784291  energy(sigma->0) =      -16.44058845


--------------------------------------------------------------------------------------------------------




----------------------------------------- Iteration    2(   5)  ---------------------------------------


    POTLOK:  cpu time    1.12: real time    1.06
    SETDIJ:  cpu time    0.08: real time    0.08
     EDDAV:  cpu time    3.18: real time    0.80
       DOS:  cpu time    0.01: real time    0.00
    CHARGE:  cpu time    0.25: real time    0.09
    MIXING:  cpu time    0.01: real time    0.01
    --------------------------------------------
      LOOP:  cpu time    4.66: real time    2.03

 eigenvalue-minimisations  :   318
 total energy-change (2. order) :-0.4541913E-02  (-0.1007140E+00)
 number of electron   27.9999794 magnetization   -5.3650413
 augmentation part    16.9843675 magnetization   -4.2214424

 Broyden mixing:
  rms(total) = 0.13381E+00    rms(broyden)= 0.13381E+00
  rms(prec ) = 0.20799E+00
  weight for this iteration     100.00

 eigenvalues of (default mixing * dielectric matrix)
  average eigenvalue GAMMA=   1.2760
  2.5081  1.1520  0.8014  0.6426

 Free energy of the ion-electron system (eV)
  ---------------------------------------------------
  alpha Z        PSCENC =       324.83886426
  Ewald energy   TEWEN  =     -3555.13567751
  -1/2 Hartree   DENC   =     -1124.74193734
  -exchange  EXHF       =         0.00000000
  -V(xc)+E(xc)   XCENC  =       140.93701258
  PAW double counting   =      3689.22689819    -3876.29442642
  entropy T*S    EENTRO =        -0.00097476
  eigenvalues    EBANDS =      -533.99187226
  atomic energy  EATOM  =      4918.71561013
  ---------------------------------------------------
  free energy    TOTEN  =       -16.44650313 eV

  energy without entropy =      -16.44552837  energy(sigma->0) =      -16.44617821


--------------------------------------------------------------------------------------------------------




----------------------------------------- Iteration    2(   6)  ---------------------------------------


    POTLOK:  cpu time    1.23: real time    1.07
    SETDIJ:  cpu time    0.08: real time    0.08
     EDDAV:  cpu time    3.48: real time    0.87
       DOS:  cpu time    0.00: real time    0.00
    CHARGE:  cpu time    0.25: real time    0.09
    MIXING:  cpu time    0.01: real time    0.01
    --------------------------------------------
      LOOP:  cpu time    5.07: real time    2.12

 eigenvalue-minimisations  :   359
 total energy-change (2. order) :-0.1815473E-01  (-0.7098152E-02)
 number of electron   27.9999795 magnetization   -5.1458436
 augmentation part    16.9137774 magnetization   -4.0079410

 Broyden mixing:
  rms(total) = 0.66566E-01    rms(broyden)= 0.66566E-01
  rms(prec ) = 0.88022E-01
  weight for this iteration     100.00

 eigenvalues of (default mixing * dielectric matrix)
  average eigenvalue GAMMA=   1.2665
  2.4635  1.4922  0.6356  0.9453  0.7958

 Free energy of the ion-electron system (eV)
  ---------------------------------------------------
  alpha Z        PSCENC =       324.83886426
  Ewald energy   TEWEN  =     -3555.13567751
  -1/2 Hartree   DENC   =     -1128.68376156
  -exchange  EXHF       =         0.00000000
  -V(xc)+E(xc)   XCENC  =       141.00449294
  PAW double counting   =      3699.69556530    -3886.39792114
  entropy T*S    EENTRO =        -0.01517490
  eigenvalues    EBANDS =      -530.48665537
  atomic energy  EATOM  =      4918.71561013
  ---------------------------------------------------
  free energy    TOTEN  =       -16.46465785 eV

  energy without entropy =      -16.44948295  energy(sigma->0) =      -16.45959955


--------------------------------------------------------------------------------------------------------




----------------------------------------- Iteration    2(   7)  ---------------------------------------


    POTLOK:  cpu time    1.22: real time    1.07
    SETDIJ:  cpu time    0.08: real time    0.08
     EDDAV:  cpu time    3.35: real time    0.84
       DOS:  cpu time    0.01: real time    0.00
    CHARGE:  cpu time    0.25: real time    0.09
    MIXING:  cpu time    0.01: real time    0.01
    --------------------------------------------
      LOOP:  cpu time    4.93: real time    2.09

 eigenvalue-minimisations  :   339
 total energy-change (2. order) :-0.3937011E-02  (-0.3682390E-02)
 number of electron   27.9999795 magnetization   -4.8916443
 augmentation part    16.9453426 magnetization   -3.8103289

 Broyden mixing:
  rms(total) = 0.43301E-01    rms(broyden)= 0.43298E-01
  rms(prec ) = 0.53935E-01
  weight for this iteration     100.00

 eigenvalues of (default mixing * dielectric matrix)
  average eigenvalue GAMMA=   1.5546
  3.2931  2.6183  0.9946  0.9946  0.6334  0.7937

 Free energy of the ion-electron system (eV)
  ---------------------------------------------------
  alpha Z        PSCENC =       324.83886426
  Ewald energy   TEWEN  =     -3555.13567751
  -1/2 Hartree   DENC   =     -1127.49728918
  -exchange  EXHF       =         0.00000000
  -V(xc)+E(xc)   XCENC  =       140.77148848
  PAW double counting   =      3698.53752805    -3883.39408931
  entropy T*S    EENTRO =        -0.02527899
  eigenvalues    EBANDS =      -533.27975079
  atomic energy  EATOM  =      4918.71561013
  ---------------------------------------------------
  free energy    TOTEN  =       -16.46859487 eV

  energy without entropy =      -16.44331587  energy(sigma->0) =      -16.46016853


--------------------------------------------------------------------------------------------------------




----------------------------------------- Iteration    2(   8)  ---------------------------------------


    POTLOK:  cpu time    1.22: real time    1.06
    SETDIJ:  cpu time    0.08: real time    0.08
     EDDAV:  cpu time    3.42: real time    0.86
       DOS:  cpu time    0.00: real time    0.00
    CHARGE:  cpu time    0.25: real time    0.09
    MIXING:  cpu time    0.02: real time    0.01
    --------------------------------------------
      LOOP:  cpu time    4.99: real time    2.10

 eigenvalue-minimisations  :   348
 total energy-change (2. order) :-0.9869928E-02  (-0.5709180E-03)
 number of electron   27.9999795 magnetization   -5.0668151
 augmentation part    16.9069009 magnetization   -4.0616865

 Broyden mixing:
  rms(total) = 0.92778E-01    rms(broyden)= 0.92777E-01
  rms(prec ) = 0.11457E+00
  weight for this iteration     100.00

 eigenvalues of (default mixing * dielectric matrix)
  average eigenvalue GAMMA=   1.2366
  2.5243  1.8372  0.9443  0.9443  0.6330  0.7977  0.9754

 Free energy of the ion-electron system (eV)
  ---------------------------------------------------
  alpha Z        PSCENC =       324.83886426
  Ewald energy   TEWEN  =     -3555.13567751
  -1/2 Hartree   DENC   =     -1128.97235531
  -exchange  EXHF       =         0.00000000
  -V(xc)+E(xc)   XCENC  =       140.70379430
  PAW double counting   =      3702.04537322    -3886.54173202
  entropy T*S    EENTRO =        -0.02171876
  eigenvalues    EBANDS =      -532.11062311
  atomic energy  EATOM  =      4918.71561013
  ---------------------------------------------------
  free energy    TOTEN  =       -16.47846479 eV

  energy without entropy =      -16.45674603  energy(sigma->0) =      -16.47122521


--------------------------------------------------------------------------------------------------------




----------------------------------------- Iteration    2(   9)  ---------------------------------------


    POTLOK:  cpu time    1.22: real time    1.06
    SETDIJ:  cpu time    0.08: real time    0.08
     EDDAV:  cpu time    3.58: real time    0.90
       DOS:  cpu time    0.00: real time    0.00
    CHARGE:  cpu time    0.18: real time    0.08
    MIXING:  cpu time    0.02: real time    0.01
    --------------------------------------------
      LOOP:  cpu time    5.08: real time    2.13

 eigenvalue-minimisations  :   369
 total energy-change (2. order) : 0.7375932E-02  (-0.2106342E-03)
 number of electron   27.9999795 magnetization   -4.8499121
 augmentation part    16.9166495 magnetization   -3.8051301

 Broyden mixing:
  rms(total) = 0.93589E-01    rms(broyden)= 0.93589E-01
  rms(prec ) = 0.10458E+00
  weight for this iteration     100.00

 eigenvalues of (default mixing * dielectric matrix)
  average eigenvalue GAMMA=   1.3007
  2.4804  2.1591  1.2879  1.2879  0.6334  0.8819  0.8376  0.8376

 Free energy of the ion-electron system (eV)
  ---------------------------------------------------
  alpha Z        PSCENC =       324.83886426
  Ewald energy   TEWEN  =     -3555.13567751
  -1/2 Hartree   DENC   =     -1128.83669493
  -exchange  EXHF       =         0.00000000
  -V(xc)+E(xc)   XCENC  =       140.80442424
  PAW double counting   =      3701.66548559    -3886.45778728
  entropy T*S    EENTRO =        -0.02607529
  eigenvalues    EBANDS =      -532.03923806
  atomic energy  EATOM  =      4918.71561013
  ---------------------------------------------------
  free energy    TOTEN  =       -16.47108886 eV

  energy without entropy =      -16.44501357  energy(sigma->0) =      -16.46239710


--------------------------------------------------------------------------------------------------------




----------------------------------------- Iteration    2(  10)  ---------------------------------------


    POTLOK:  cpu time    1.15: real time    1.06
    SETDIJ:  cpu time    0.08: real time    0.08
     EDDAV:  cpu time    3.46: real time    0.87
       DOS:  cpu time    0.00: real time    0.00
    CHARGE:  cpu time    0.25: real time    0.09
    MIXING:  cpu time    0.02: real time    0.01
    --------------------------------------------
      LOOP:  cpu time    4.97: real time    2.11

 eigenvalue-minimisations  :   356
 total energy-change (2. order) :-0.9566073E-02  (-0.5892687E-03)
 number of electron   27.9999795 magnetization   -5.2740102
 augmentation part    16.9138789 magnetization   -4.2810209

 Broyden mixing:
  rms(total) = 0.92629E-01    rms(broyden)= 0.92629E-01
  rms(prec ) = 0.10164E+00
  weight for this iteration     100.00

 eigenvalues of (default mixing * dielectric matrix)
  average eigenvalue GAMMA=   1.1644
  2.4746  2.2572  0.8991  0.8991  0.8883  0.8371  0.8371  0.6334  0.7533

 Free energy of the ion-electron system (eV)
  ---------------------------------------------------
  alpha Z        PSCENC =       324.83886426
  Ewald energy   TEWEN  =     -3555.13567751
  -1/2 Hartree   DENC   =     -1128.22866691
  -exchange  EXHF       =         0.00000000
  -V(xc)+E(xc)   XCENC  =       140.63826570
  PAW double counting   =      3700.85406062    -3885.39189555
  entropy T*S    EENTRO =        -0.01893924
  eigenvalues    EBANDS =      -532.75227645
  atomic energy  EATOM  =      4918.71561013
  ---------------------------------------------------
  free energy    TOTEN  =       -16.48065493 eV

  energy without entropy =      -16.46171570  energy(sigma->0) =      -16.47434185


--------------------------------------------------------------------------------------------------------




----------------------------------------- Iteration    2(  11)  ---------------------------------------


    POTLOK:  cpu time    1.21: real time    1.06
    SETDIJ:  cpu time    0.08: real time    0.08
     EDDAV:  cpu time    3.66: real time    0.92
       DOS:  cpu time    0.00: real time    0.00
    CHARGE:  cpu time    0.25: real time    0.09
    MIXING:  cpu time    0.02: real time    0.01
    --------------------------------------------
      LOOP:  cpu time    5.24: real time    2.16

 eigenvalue-minimisations  :   383
 total energy-change (2. order) : 0.1869841E-01  (-0.1904802E-02)
 number of electron   27.9999795 magnetization   -7.4768356
 augmentation part    16.9257754 magnetization   -6.3757286

 Broyden mixing:
  rms(total) = 0.81487E-01    rms(broyden)= 0.81485E-01
  rms(prec ) = 0.89375E-01
  weight for this iteration     100.00

 eigenvalues of (default mixing * dielectric matrix)
  average eigenvalue GAMMA=   3.2234
 21.5655  2.5403  2.5403  1.0216  1.0216  0.7995  0.7555  0.7555  0.6335  0.6008

 Free energy of the ion-electron system (eV)
  ---------------------------------------------------
  alpha Z        PSCENC =       324.83886426
  Ewald energy   TEWEN  =     -3555.13567751
  -1/2 Hartree   DENC   =     -1129.25995560
  -exchange  EXHF       =         0.00000000
  -V(xc)+E(xc)   XCENC  =       140.95387815
  PAW double counting   =      3702.22041507    -3887.11698423
  entropy T*S    EENTRO =        -0.02254595
  eigenvalues    EBANDS =      -531.65556084
  atomic energy  EATOM  =      4918.71561013
  ---------------------------------------------------
  free energy    TOTEN  =       -16.46195652 eV

  energy without entropy =      -16.43941057  energy(sigma->0) =      -16.45444120


--------------------------------------------------------------------------------------------------------




----------------------------------------- Iteration    2(  12)  ---------------------------------------


    POTLOK:  cpu time    1.21: real time    1.09
    SETDIJ:  cpu time    0.08: real time    0.08
     EDDAV:  cpu time    3.81: real time    0.96
       DOS:  cpu time    0.00: real time    0.00
    CHARGE:  cpu time    0.25: real time    0.09
    MIXING:  cpu time    0.02: real time    0.01
    --------------------------------------------
      LOOP:  cpu time    5.38: real time    2.22

 eigenvalue-minimisations  :   402
 total energy-change (2. order) : 0.5654635E+00  (-0.5459325E-01)
 number of electron   27.9999796 magnetization   -6.5997224
 augmentation part    16.8260575 magnetization   -5.5751367

 Broyden mixing:
  rms(total) = 0.11227E+01    rms(broyden)= 0.11227E+01
  rms(prec ) = 0.11711E+01
  weight for this iteration     100.00

 eigenvalues of (default mixing * dielectric matrix)
  average eigenvalue GAMMA=   1.8940
 10.1895  2.5173  2.5173  1.0245  1.0245  0.7992  0.7124  0.7124  0.6265  0.6265
  0.0844

 Free energy of the ion-electron system (eV)
  ---------------------------------------------------
  alpha Z        PSCENC =       324.83886426
  Ewald energy   TEWEN  =     -3555.13567751
  -1/2 Hartree   DENC   =     -1134.66399780
  -exchange  EXHF       =         0.00000000
  -V(xc)+E(xc)   XCENC  =       142.98276306
  PAW double counting   =      3709.43269728    -3896.35820930
  entropy T*S    EENTRO =        -0.00569046
  eigenvalues    EBANDS =      -525.70285269
  atomic energy  EATOM  =      4918.71561013
  ---------------------------------------------------
  free energy    TOTEN  =       -15.89649303 eV

  energy without entropy =      -15.89080257  energy(sigma->0) =      -15.89459621


--------------------------------------------------------------------------------------------------------




----------------------------------------- Iteration    2(  13)  ---------------------------------------


    POTLOK:  cpu time    1.24: real time    1.09
    SETDIJ:  cpu time    0.08: real time    0.08
     EDDAV:  cpu time    3.75: real time    0.94
       DOS:  cpu time    0.00: real time    0.00
    CHARGE:  cpu time    0.25: real time    0.08
    MIXING:  cpu time    0.02: real time    0.01
    --------------------------------------------
      LOOP:  cpu time    5.35: real time    2.21

 eigenvalue-minimisations  :   394
 total energy-change (2. order) :-0.3747909E+00  (-0.9266989E-02)
 number of electron   27.9999796 magnetization   -4.4855849
 augmentation part    16.8773378 magnetization   -3.3981391

 Broyden mixing:
  rms(total) = 0.64563E+00    rms(broyden)= 0.64563E+00
  rms(prec ) = 0.67292E+00
  weight for this iteration     100.00

 eigenvalues of (default mixing * dielectric matrix)
  average eigenvalue GAMMA=   1.4087
  5.8210  2.5273  2.5273  0.9668  0.9668  0.8169  0.6860  0.6860  0.6353  0.6353
  0.4844  0.1511

 Free energy of the ion-electron system (eV)
  ---------------------------------------------------
  alpha Z        PSCENC =       324.83886426
  Ewald energy   TEWEN  =     -3555.13567751
  -1/2 Hartree   DENC   =     -1132.36298765
  -exchange  EXHF       =         0.00000000
  -V(xc)+E(xc)   XCENC  =       142.08815438
  PAW double counting   =      3706.60366999    -3892.71802550
  entropy T*S    EENTRO =        -0.00558902
  eigenvalues    EBANDS =      -528.29530302
  atomic energy  EATOM  =      4918.71561013
  ---------------------------------------------------
  free energy    TOTEN  =       -16.27128394 eV

  energy without entropy =      -16.26569492  energy(sigma->0) =      -16.26942094


--------------------------------------------------------------------------------------------------------




----------------------------------------- Iteration    2(  14)  ---------------------------------------


    POTLOK:  cpu time    1.16: real time    1.07
    SETDIJ:  cpu time    0.08: real time    0.08
     EDDAV:  cpu time    3.74: real time    0.94
       DOS:  cpu time    0.01: real time    0.00
    CHARGE:  cpu time    0.25: real time    0.09
    MIXING:  cpu time    0.03: real time    0.01
    --------------------------------------------
      LOOP:  cpu time    5.27: real time    2.19

 eigenvalue-minimisations  :   394
 total energy-change (2. order) :-0.2113784E+00  (-0.5064708E-01)
 number of electron   27.9999795 magnetization   -5.7106381
 augmentation part    16.9258958 magnetization   -4.7632958

 Broyden mixing:
  rms(total) = 0.14132E-01    rms(broyden)= 0.14045E-01
  rms(prec ) = 0.16319E-01
  weight for this iteration     100.00

 eigenvalues of (default mixing * dielectric matrix)
  average eigenvalue GAMMA=   1.2538
  2.5975  2.5975  2.5429  2.5429  1.0376  0.8884  0.8417  0.8417  0.6310  0.6061
  0.6061  0.2832  0.2832

 Free energy of the ion-electron system (eV)
  ---------------------------------------------------
  alpha Z        PSCENC =       324.83886426
  Ewald energy   TEWEN  =     -3555.13567751
[...]
  atomic energy  EATOM  =      4918.71561013
  ---------------------------------------------------
  free energy    TOTEN  =       -16.55045509 eV

  energy without entropy =      -16.55538588  energy(sigma->0) =      -16.55209869


--------------------------------------------------------------------------------------------------------




 average (electrostatic) potential at core
  the test charge radii are     0.9500
  (the norm of the test charge is              1.0000)
       1 -45.6362       2 -45.6362
 
 
 
 E-fermi :   5.3255     XC(G=0): -13.6750     alpha+bet :-12.9981
   add alpha+bet to get absolut eigen values

 spin component 1

 k-point   1 :       0.0000    0.0000    0.0000
  band No.  band energies     occupation 
      1     -46.3245      1.00000
      2     -46.3245      1.00000
      3     -46.3245      1.00000
      4     -46.0046      1.00000
      5     -46.0046      1.00000
      6     -46.0046      1.00000
      7      -2.9795      1.00000
      8       2.1659      1.00000
      9       2.1659      1.00000
     10       4.8640      1.00262
     11       4.8640      1.00262
     12       4.8640      1.00262
     13       6.7869      0.00000
     14       6.7869      0.00000
     15       7.5509      0.00000
     16       7.5509      0.00000
     17       7.5509      0.00000
     18      15.4988      0.00000
     19      15.4988      0.00000

 k-point   2 :       0.3333    0.0000    0.0000
  band No.  band energies     occupation 
      1     -46.2994      1.00000
      2     -46.2410      1.00000
      3     -46.2410      1.00000
      4     -46.1404      1.00000
      5     -46.0809      1.00000
      6     -46.0809      1.00000
      7      -0.8317      1.00000
      8       2.3983      1.00000
      9       3.2519      1.00000
     10       4.9046      1.00562
     11       4.9046      1.00562
     12       5.5086     -0.01405
     13       5.5778     -0.03526
     14       5.9941     -0.00001
     15       5.9941     -0.00001
     16       6.8524      0.00000
     17       7.1987      0.00000
     18       9.4618      0.00000
     19      19.4588      0.00000

 k-point   3 :       0.3333    0.3333    0.0000
  band No.  band energies     occupation 
      1     -46.4207      1.00000
      2     -46.3429      1.00000
      3     -46.1964      1.00000
      4     -46.1164      1.00000
      5     -46.0862      1.00000
      6     -46.0049      1.00000
      7       0.6689      1.00000
      8       2.3076      1.00000
      9       3.8882      1.00000
     10       4.0465      1.00000
     11       4.3341      1.00000
     12       4.5693      1.00000
     13       6.0530      0.00000
     14       6.5581      0.00000
     15       6.9500      0.00000
     16       6.9782      0.00000
     17       7.7763      0.00000
     18       9.6515      0.00000
     19      13.9895      0.00000

 k-point   4 :       0.3333    0.3333    0.3333
  band No.  band energies     occupation 
      1     -46.3576      1.00000
      2     -46.3132      1.00000
      3     -46.3132      1.00000
      4     -46.1052      1.00000
      5     -46.1052      1.00000
      6     -46.0609      1.00000
      7       2.2356      1.00000
      8       3.1097      1.00000
      9       3.5337      1.00000
     10       3.5337      1.00000
     11       3.6347      1.00000
     12       3.6347      1.00000
     13       6.8837      0.00000
     14       6.8837      0.00000
     15       6.9169      0.00000
     16       6.9169      0.00000
     17       9.0192      0.00000
     18      13.1020      0.00000
     19      13.1020      0.00000

 spin component 2

 k-point   1 :       0.0000    0.0000    0.0000
  band No.  band energies     occupation 
      1     -48.8910      1.00000
      2     -48.8910      1.00000
      3     -48.8910      1.00000
      4     -48.5989      1.00000
      5     -48.5989      1.00000
      6     -48.5989      1.00000
      7      -3.1939      1.00000
      8       0.4133      1.00000
      9       0.4133      1.00000
     10       2.8695      1.00000
     11       2.8695      1.00000
     12       2.8695      1.00000
     13       4.1569      1.00000
     14       4.1569      1.00000
     15       5.2812      0.68233
     16       5.2812      0.68233
     17       5.2812      0.68233
     18      15.1450      0.00000
     19      15.1450      0.00000

 k-point   2 :       0.3333    0.0000    0.0000
  band No.  band energies     occupation 
      1     -48.8658      1.00000
      2     -48.8149      1.00000
      3     -48.8149      1.00000
      4     -48.7205      1.00000
      5     -48.6688      1.00000
      6     -48.6688      1.00000
      7      -1.1024      1.00000
      8       1.0367      1.00000
      9       1.3251      1.00000
     10       2.9660      1.00000
     11       2.9660      1.00000
     12       3.2098      1.00000
     13       3.4529      1.00000
     14       4.0014      1.00000
     15       4.0014      1.00000
     16       4.5471      1.00000
     17       4.6592      1.00001
     18       8.1055      0.00000
     19      18.8132      0.00000

 k-point   3 :       0.3333    0.3333    0.0000
  band No.  band energies     occupation 
      1     -48.9758      1.00000
      2     -48.9045      1.00000
      3     -48.7745      1.00000
      4     -48.7015      1.00000
      5     -48.6728      1.00000
      6     -48.5987      1.00000
      7       0.0038      1.00000
      8       0.8331      1.00000
      9       2.0505      1.00000
     10       2.4340      1.00000
     11       2.4840      1.00000
     12       3.2555      1.00000
     13       3.8109      1.00000
     14       4.1112      1.00000
     15       4.2764      1.00000
     16       4.7826      1.00042
     17       5.4823      0.01405
     18       8.4802      0.00000
     19      12.6927      0.00000

 k-point   4 :       0.3333    0.3333    0.3333
  band No.  band energies     occupation 
      1     -48.9182      1.00000
      2     -48.8785      1.00000
      3     -48.8785      1.00000
      4     -48.6898      1.00000
      5     -48.6898      1.00000
      6     -48.6501      1.00000
      7       1.5073      1.00000
      8       1.5300      1.00000
      9       1.8474      1.00000
     10       1.8474      1.00000
     11       2.1138      1.00000
     12       2.1138      1.00000
     13       4.2769      1.00000
     14       4.2769      1.00000
     15       4.4206      1.00000
     16       4.4206      1.00000
     17       7.2433      0.00000
     18      12.0044      0.00000
     19      12.0044      0.00000


--------------------------------------------------------------------------------------------------------


 soft charge-density along one line, spin component           1
         0         1         2         3         4         5         6         7         8         9
 total charge-density along one line
 
 soft charge-density along one line, spin component           2
         0         1         2         3         4         5         6         7         8         9
 total charge-density along one line
 
 pseudopotential strength for first ion, spin component:           1
-51.694   0.000   0.000  25.787   0.000   0.000   0.000   0.000
  0.000 -51.694   0.000   0.000  25.787   0.000   0.000   0.000
  0.000   0.000 -51.694   0.000   0.000  25.787   0.000   0.000
 25.787   0.000   0.000  -8.364   0.000   0.000   0.000   0.000
  0.000  25.787   0.000   0.000  -8.364   0.000   0.000   0.000
  0.000   0.000  25.787   0.000   0.000  -8.364   0.000   0.000
  0.000   0.000   0.000   0.000   0.000   0.000  -5.987   0.000
  0.000   0.000   0.000   0.000   0.000   0.000   0.000  -5.987
  0.000   0.000   0.000   0.000   0.000   0.000   0.000   0.000
  0.000   0.000   0.000   0.000   0.000   0.000   0.000   0.000
  0.000   0.000   0.000   0.000   0.000   0.000   0.000   0.000
  0.000   0.000   0.000   0.000   0.000   0.000  -0.744   0.000
  0.000   0.000   0.000   0.000   0.000   0.000   0.000  -0.744
  0.000   0.000   0.000   0.000   0.000   0.000   0.000   0.000
  0.000   0.000   0.000   0.000   0.000   0.000   0.000   0.000
  0.000   0.000   0.000   0.000   0.000   0.000   0.000   0.000
  0.000   0.000   0.000   0.000   0.000   0.000   0.000   0.000
  0.000   0.000   0.000   0.000   0.000   0.000   0.000   0.000
 pseudopotential strength for first ion, spin component:           2
-53.652   0.000   0.000  27.299   0.000   0.000   0.000   0.000
  0.000 -53.652   0.000   0.000  27.299   0.000   0.000   0.000
  0.000   0.000 -53.652   0.000   0.000  27.299   0.000   0.000
 27.299   0.000   0.000  -9.429   0.000   0.000   0.000   0.000
  0.000  27.299   0.000   0.000  -9.429   0.000   0.000   0.000
  0.000   0.000  27.299   0.000   0.000  -9.429   0.000   0.000
  0.000   0.000   0.000   0.000   0.000   0.000  -7.497   0.000
  0.000   0.000   0.000   0.000   0.000   0.000   0.000  -7.497
  0.000   0.000   0.000   0.000   0.000   0.000   0.000   0.000
  0.000   0.000   0.000   0.000   0.000   0.000   0.000   0.000
  0.000   0.000   0.000   0.000   0.000   0.000   0.000   0.000
  0.000   0.000   0.000   0.000   0.000   0.000  -0.386   0.000
  0.000   0.000   0.000   0.000   0.000   0.000   0.000  -0.386
  0.000   0.000   0.000   0.000   0.000   0.000   0.000   0.000
  0.000   0.000   0.000   0.000   0.000   0.000   0.000   0.000
  0.000   0.000   0.000   0.000   0.000   0.000   0.000   0.000
  0.000   0.000   0.000   0.000   0.000   0.000   0.000   0.000
  0.000   0.000   0.000   0.000   0.000   0.000   0.000   0.000
 total augmentation occupancy for first ion, spin component:           1
  2.015   0.000   0.000   0.075   0.000   0.000   0.000   0.000   0.000   0.000   0.000   0.000   0.000   0.000   0.000   0.000
  0.000   2.015   0.000   0.000   0.075   0.000   0.000   0.000   0.000   0.000   0.000   0.000   0.000   0.000   0.000   0.000
  0.000   0.000   2.015   0.000   0.000   0.075   0.000   0.000   0.000   0.000   0.000   0.000   0.000   0.000   0.000   0.000
  0.075   0.000   0.000   0.252   0.000   0.000   0.000   0.000   0.000   0.000   0.000   0.000   0.000   0.000   0.000   0.000
  0.000   0.075   0.000   0.000   0.252   0.000   0.000   0.000   0.000   0.000   0.000   0.000   0.000   0.000   0.000   0.000
  0.000   0.000   0.075   0.000   0.000   0.252   0.000   0.000   0.000   0.000   0.000   0.000   0.000   0.000   0.000   0.000
  0.000   0.000   0.000   0.000   0.000   0.000   1.411   0.000   0.000   0.000   0.000   0.131   0.000   0.000   0.000   0.000
  0.000   0.000   0.000   0.000   0.000   0.000   0.000   1.411   0.000   0.000   0.000   0.000   0.131   0.000   0.000   0.000
  0.000   0.000   0.000   0.000   0.000   0.000   0.000   0.000   1.267   0.000   0.000   0.000   0.000   0.005   0.000   0.000
  0.000   0.000   0.000   0.000   0.000   0.000   0.000   0.000   0.000   1.411   0.000   0.000   0.000   0.000   0.131   0.000
  0.000   0.000   0.000   0.000   0.000   0.000   0.000   0.000   0.000   0.000   1.267   0.000   0.000   0.000   0.000   0.005
  0.000   0.000   0.000   0.000   0.000   0.000   0.131   0.000   0.000   0.000   0.000   0.162   0.000   0.000   0.000   0.000
  0.000   0.000   0.000   0.000   0.000   0.000   0.000   0.131   0.000   0.000   0.000   0.000   0.162   0.000   0.000   0.000
  0.000   0.000   0.000   0.000   0.000   0.000   0.000   0.000   0.005   0.000   0.000   0.000   0.000   0.224   0.000   0.000
  0.000   0.000   0.000   0.000   0.000   0.000   0.000   0.000   0.000   0.131   0.000   0.000   0.000   0.000   0.162   0.000
  0.000   0.000   0.000   0.000   0.000   0.000   0.000   0.000   0.000   0.000   0.005   0.000   0.000   0.000   0.000   0.224
  0.000   0.000   0.000   0.000   0.000   0.000   0.000   0.000   0.000   0.000   0.000   0.000   0.000   0.000   0.000   0.000
  0.000   0.000   0.000   0.000   0.000   0.000   0.000   0.000   0.000   0.000   0.000   0.000   0.000   0.000   0.000   0.000
 total augmentation occupancy for first ion, spin component:           2
  0.013   0.000   0.000   0.018   0.000   0.000   0.000   0.000   0.000   0.000   0.000   0.000   0.000   0.000   0.000   0.000
  0.000   0.013   0.000   0.000   0.018   0.000   0.000   0.000   0.000   0.000   0.000   0.000   0.000   0.000   0.000   0.000
  0.000   0.000   0.013   0.000   0.000   0.018   0.000   0.000   0.000   0.000   0.000   0.000   0.000   0.000   0.000   0.000
  0.018   0.000   0.000   0.023   0.000   0.000   0.000   0.000   0.000   0.000   0.000   0.000   0.000   0.000   0.000   0.000
  0.000   0.018   0.000   0.000   0.023   0.000   0.000   0.000   0.000   0.000   0.000   0.000   0.000   0.000   0.000   0.000
  0.000   0.000   0.018   0.000   0.000   0.023   0.000   0.000   0.000   0.000   0.000   0.000   0.000   0.000   0.000   0.000
  0.000   0.000   0.000   0.000   0.000   0.000  -0.337   0.000   0.000   0.000   0.000   0.226   0.000   0.000   0.000   0.000
  0.000   0.000   0.000   0.000   0.000   0.000   0.000  -0.337   0.000   0.000   0.000   0.000   0.226   0.000   0.000   0.000
  0.000   0.000   0.000   0.000   0.000   0.000   0.000   0.000  -0.633   0.000   0.000   0.000   0.000   0.319   0.000   0.000
  0.000   0.000   0.000   0.000   0.000   0.000   0.000   0.000   0.000  -0.337   0.000   0.000   0.000   0.000   0.226   0.000
  0.000   0.000   0.000   0.000   0.000   0.000   0.000   0.000   0.000   0.000  -0.633   0.000   0.000   0.000   0.000   0.319
  0.000   0.000   0.000   0.000   0.000   0.000   0.226   0.000   0.000   0.000   0.000  -0.009   0.000   0.000   0.000   0.000
  0.000   0.000   0.000   0.000   0.000   0.000   0.000   0.226   0.000   0.000   0.000   0.000  -0.009   0.000   0.000   0.000
  0.000   0.000   0.000   0.000   0.000   0.000   0.000   0.000   0.319   0.000   0.000   0.000   0.000  -0.042   0.000   0.000
  0.000   0.000   0.000   0.000   0.000   0.000   0.000   0.000   0.000   0.226   0.000   0.000   0.000   0.000  -0.009   0.000
  0.000   0.000   0.000   0.000   0.000   0.000   0.000   0.000   0.000   0.000   0.319   0.000   0.000   0.000   0.000  -0.042
  0.000   0.000   0.000   0.000   0.000   0.000   0.000   0.000   0.000   0.000   0.000   0.000   0.000   0.000   0.000   0.000
  0.000   0.000   0.000   0.000   0.000   0.000   0.000   0.000   0.000   0.000   0.000   0.000   0.000   0.000   0.000   0.000


------------------------ aborting loop because EDIFF is reached ----------------------------------------




--------------------------------------------------------------------------------------------------------



  FREE ENERGIE OF THE ION-ELECTRON SYSTEM (eV)
  ---------------------------------------------------
  free  energy   TOTEN  =       -16.550455 eV

  energy  without entropy=      -16.555386  energy(sigma->0) =      -16.552099
 
    CHARGE:  cpu time    0.22: real time    0.09
    FORLOC:  cpu time    0.00: real time    0.00
    FORNL :  cpu time    0.27: real time    0.27
    STRESS:  cpu time    1.16: real time    0.43
    FORCOR:  cpu time    1.06: real time    1.06
    FORHAR:  cpu time    0.02: real time    0.02
    MIXING:  cpu time    0.01: real time    0.01

  FORCE on cell =-STRESS in cart. coord.  units (eV):
  Direction    XX          YY          ZZ          XY          YZ          ZX
  --------------------------------------------------------------------------------------
  Alpha Z   342.96722   342.96722   342.96722
  Ewald   -1206.69201 -1206.69201 -1206.69201     0.00000     0.00000     0.00000
  Hartree   364.01514   364.01514   364.01514     0.00000     0.00000     0.00000
  E(xc)    -180.49312  -180.49312  -180.49312     0.00000     0.00000     0.00000
  Local     402.21544   402.21544   402.21544     0.00000     0.00000     0.00000
  n-local  -147.75418  -146.09628  -143.77909     1.31479     0.18267     0.18259
  augment   141.18927   141.18926   141.18929    -0.00006    -0.00008    -0.00008
  Kinetic   284.14903   282.12400   281.27963     5.43471    -0.48118    -0.48118
  Fock        0.00000     0.00000     0.00000     0.00000     0.00000     0.00000
  -------------------------------------------------------------------------------------
  Total      -0.15702    -0.15702    -0.15702     0.00000     0.00000     0.00000
  in kB     -11.01423   -11.01423   -11.01423     0.00000     0.00000     0.00000
  external pressure =      -11.01 kB  Pullay stress =        0.00 kB


 VOLUME and BASIS-vectors are now :
 -----------------------------------------------------------------------------
  energy-cutoff  :      450.00
  volume of cell :       22.84
      direct lattice vectors                 reciprocal lattice vectors
     2.837294000  0.000000000  0.000000000     0.352448495  0.000000000  0.000000000
     0.000000000  2.837294000  0.000000000     0.000000000  0.352448495  0.000000000
     0.000000000  0.000000000  2.837294000     0.000000000  0.000000000  0.352448495

  length of vectors
     2.837294000  2.837294000  2.837294000     0.352448495  0.352448495  0.352448495


 FORCES acting on ions
    electron-ion (+dipol)            ewald-force                    non-local-force                 convergence-correction
 -----------------------------------------------------------------------------------------------
   0.131E-12 0.993E-13 -.456E-12   -.638E-14 -.145E-13 -.579E-14   -.212E-21 0.212E-21 -.212E-21   -.357E-13 -.103E-13 0.219E-12
   0.825E-12 -.176E-11 0.340E-12   0.623E-14 0.115E-13 0.501E-14   -.212E-21 0.212E-21 -.212E-21   0.649E-13 0.416E-13 0.239E-12
 -----------------------------------------------------------------------------------------------
   0.956E-12 -.166E-11 -.116E-12   -.143E-15 -.294E-14 -.783E-15   -.424E-21 0.424E-21 -.424E-21   0.292E-13 0.313E-13 0.458E-12
 
 
 POSITION                                       TOTAL-FORCE (eV/Angst)
 -----------------------------------------------------------------------------------
      0.00000      0.00000      0.00000         0.000000      0.000000      0.000000
      1.41865      1.41865      1.41865         0.000000      0.000000      0.000000
 -----------------------------------------------------------------------------------
    total drift:                                0.000000      0.000000      0.000000
 d Force = 0.0000000E+00[ 0.000E+00, 0.000E+00]  d Energy = 0.3207207E-02-0.321E-02
 d Force = 0.0000000E+00[ 0.000E+00, 0.000E+00]  d Ewald  = 0.1336659E+02-0.134E+02


--------------------------------------------------------------------------------------------------------


    POTLOK:  cpu time    1.30: real time    1.14


--------------------------------------------------------------------------------------------------------


  FORCES: max atom, RMS     0.000000    0.000000
  FORCE total and by dimension    0.000000    0.000000


--------------------------------------------------------------------------------------------------------


  
 reached required accuracy - stopping structural energy minimisation
     LOOP+:  cpu time   31.06: real time   15.29
    4ORBIT:  cpu time    0.00: real time    0.00

 total amount of memory used by VASP on root node  38636. kBytes
========================================================================

   base      :    30000. kBytes
   nonl-proj :      566. kBytes
   fftplans  :     1676. kBytes
   grid      :     3981. kBytes
   one-center:       62. kBytes
   wavefun   :     2351. kBytes
 
  
  
 General timing and accounting informations for this job:
 ========================================================
  
                  Total CPU time used (sec):      290.076
                            User time (sec):      287.649
                          System time (sec):        2.427
                         Elapsed time (sec):      131.805
  
                   Maximum memory used (kb):           0.
                   Average memory used (kb):           0.
  
                          Minor page faults:        67576
                          Major page faults:           35
                 Voluntary context switches:         1015
