   3   3   0   0
  0.1429167E+02  0.3500000E-09  0.3500000E-09  0.3500000E-09  0.5000000E-15
  1.000000000000000E-004
  CAR 
 unknown system                          
     18.28504007     -2.84230168  301     10.45984995      1.00000000
     -2.842  0.0000E+00  0.0000E+00
     -2.772  0.0000E+00  0.0000E+00
     -2.701  0.0000E+00  0.0000E+00
     -2.631  0.0000E+00  0.0000E+00
     -2.561  0.0000E+00  0.0000E+00
     -2.490 -0.1136E-29 -0.8000E-31
     -2.420 -0.3170E-27 -0.2240E-28
     -2.349 -0.6906E-25 -0.4886E-26
     -2.279 -0.1171E-22 -0.8297E-24
     -2.208 -0.1546E-20 -0.1097E-21
     -2.138 -0.1587E-18 -0.1129E-19
     -2.068 -0.1267E-16 -0.9036E-18
     -1.997 -0.7614E-15 -0.5452E-16
     -1.927 -0.3661E-13 -0.2633E-14
     -1.856 -0.1362E-11 -0.9857E-13
     -1.786 -0.3925E-10 -0.2863E-11
     -1.716 -0.8740E-09 -0.6442E-10
     -1.645 -0.1501E-07 -0.1121E-08
     -1.575 -0.1981E-06 -0.1507E-07
     -1.504 -0.2001E-05 -0.1560E-06
     -1.434 -0.1536E-04 -0.1237E-05
     -1.363 -0.8855E-04 -0.7474E-05
     -1.293 -0.3763E-03 -0.3397E-04
     -1.223 -0.1132E-02 -0.1137E-03
     -1.152 -0.2166E-02 -0.2662E-03
     -1.082 -0.1474E-02 -0.3700E-03
     -1.011  0.5158E-02 -0.6719E-05
     -0.941  0.2001E-01  0.1403E-02
     -0.870  0.3693E-01  0.4003E-02
     -0.800  0.4347E-01  0.7065E-02
     -0.730  0.3396E-01  0.9456E-02
     -0.659  0.1650E-01  0.1062E-01
     -0.589  0.3145E-02  0.1084E-01
     -0.518 -0.1940E-02  0.1070E-01
     -0.448 -0.1993E-02  0.1056E-01
     -0.377 -0.9352E-03  0.1050E-01
     -0.307 -0.2885E-03  0.1048E-01
     -0.237 -0.6370E-04  0.1047E-01
     -0.166 -0.1042E-04  0.1047E-01
     -0.096 -0.1283E-05  0.1047E-01
     -0.025 -0.1203E-06  0.1047E-01
      0.045 -0.8642E-08  0.1047E-01
      0.116 -0.4775E-09  0.1047E-01
      0.186 -0.2035E-10  0.1047E-01
      0.256 -0.6708E-12  0.1047E-01
      0.327 -0.1710E-13  0.1047E-01
      0.397 -0.3632E-15  0.1047E-01
      0.468  0.0000E+00  0.1047E-01
      0.538  0.0000E+00  0.1047E-01
      0.608  0.0000E+00  0.1047E-01
      0.679  0.0000E+00  0.1047E-01
      0.749  0.0000E+00  0.1047E-01
      0.820  0.0000E+00  0.1047E-01
      0.890  0.0000E+00  0.1047E-01
      0.961  0.0000E+00  0.1047E-01
      1.031  0.0000E+00  0.1047E-01
      1.101  0.0000E+00  0.1047E-01
      1.172  0.0000E+00  0.1047E-01
      1.242  0.0000E+00  0.1047E-01
      1.313  0.0000E+00  0.1047E-01
      1.383  0.0000E+00  0.1047E-01
      1.454  0.0000E+00  0.1047E-01
      1.524  0.0000E+00  0.1047E-01
      1.594  0.0000E+00  0.1047E-01
      1.665  0.0000E+00  0.1047E-01
      1.735  0.0000E+00  0.1047E-01
      1.806  0.0000E+00  0.1047E-01
      1.876  0.0000E+00  0.1047E-01
      1.947  0.0000E+00  0.1047E-01
      2.017  0.0000E+00  0.1047E-01
      2.087  0.0000E+00  0.1047E-01
      2.158  0.0000E+00  0.1047E-01
      2.228  0.0000E+00  0.1047E-01
      2.299  0.0000E+00  0.1047E-01
      2.369  0.0000E+00  0.1047E-01
      2.440  0.0000E+00  0.1047E-01
      2.510  0.0000E+00  0.1047E-01
      2.580  0.0000E+00  0.1047E-01
      2.651  0.0000E+00  0.1047E-01
      2.721  0.0000E+00  0.1047E-01
      2.792  0.0000E+00  0.1047E-01
      2.862  0.0000E+00  0.1047E-01
      2.933  0.0000E+00  0.1047E-01
      3.003  0.0000E+00  0.1047E-01
      3.073  0.0000E+00  0.1047E-01
      3.144  0.0000E+00  0.1047E-01
      3.214  0.0000E+00  0.1047E-01
      3.285 -0.4855E-29  0.1047E-01
      3.355 -0.1271E-26  0.1047E-01
      3.425 -0.2599E-24  0.1047E-01
      3.496 -0.4137E-22  0.1047E-01
      3.566 -0.5123E-20  0.1047E-01
      3.637 -0.4935E-18  0.1047E-01
      3.707 -0.3696E-16  0.1047E-01
      3.778 -0.2085E-14  0.1047E-01
      3.848 -0.9384E-13  0.1047E-01
      3.918 -0.3273E-11  0.1047E-01
      3.989 -0.8835E-10  0.1047E-01
      4.059 -0.1842E-08  0.1047E-01
      4.130 -0.2961E-07  0.1047E-01
      4.200 -0.3654E-06  0.1047E-01
      4.271 -0.3446E-05  0.1047E-01
      4.341 -0.2464E-04  0.1047E-01
      4.411 -0.1320E-03  0.1046E-01
      4.482 -0.5184E-03  0.1042E-01
      4.552 -0.1428E-02  0.1032E-01
      4.623 -0.2443E-02  0.1015E-01
      4.693 -0.1192E-02  0.1007E-01
      4.764  0.6153E-02  0.1050E-01
      4.834  0.2040E-01  0.1194E-01
      4.904  0.3654E-01  0.1451E-01
      4.975  0.5062E-01  0.1808E-01
      5.045  0.6613E-01  0.2273E-01
      5.116  0.8329E-01  0.2860E-01
      5.186  0.8823E-01  0.3481E-01
      5.257  0.6883E-01  0.3966E-01
      5.327  0.3484E-01  0.4211E-01
      5.397  0.7546E-02  0.4264E-01
      5.468 -0.3660E-02  0.4239E-01
      5.538 -0.4216E-02  0.4209E-01
      5.609 -0.2074E-02  0.4194E-01
      5.679 -0.6632E-03  0.4190E-01
      5.749 -0.1512E-03  0.4189E-01
      5.820 -0.2547E-04  0.4189E-01
      5.890 -0.3229E-05  0.4188E-01
      5.961 -0.3113E-06  0.4188E-01
      6.031 -0.2298E-07  0.4188E-01
      6.102 -0.1304E-08  0.4188E-01
      6.172 -0.5710E-10  0.4188E-01
      6.242 -0.1933E-11  0.4188E-01
      6.313 -0.5065E-13  0.4188E-01
      6.383 -0.1056E-14  0.4188E-01
      6.454  0.0000E+00  0.4188E-01
      6.524  0.0000E+00  0.4188E-01
      6.595  0.0000E+00  0.4188E-01
      6.665  0.0000E+00  0.4188E-01
      6.735  0.0000E+00  0.4188E-01
      6.806  0.0000E+00  0.4188E-01
      6.876  0.0000E+00  0.4188E-01
      6.947  0.0000E+00  0.4188E-01
      7.017  0.0000E+00  0.4188E-01
      7.088  0.0000E+00  0.4188E-01
      7.158  0.0000E+00  0.4188E-01
      7.228  0.0000E+00  0.4188E-01
      7.299  0.0000E+00  0.4188E-01
      7.369  0.0000E+00  0.4188E-01
      7.440  0.0000E+00  0.4188E-01
      7.510  0.0000E+00  0.4188E-01
      7.581  0.0000E+00  0.4188E-01
      7.651  0.0000E+00  0.4188E-01
      7.721  0.0000E+00  0.4188E-01
      7.792  0.0000E+00  0.4188E-01
      7.862  0.0000E+00  0.4188E-01
      7.933  0.0000E+00  0.4188E-01
      8.003  0.0000E+00  0.4188E-01
      8.073  0.0000E+00  0.4188E-01
      8.144  0.0000E+00  0.4188E-01
      8.214  0.0000E+00  0.4188E-01
      8.285  0.0000E+00  0.4188E-01
      8.355  0.0000E+00  0.4188E-01
      8.426  0.0000E+00  0.4188E-01
      8.496  0.0000E+00  0.4188E-01
      8.566  0.0000E+00  0.4188E-01
      8.637  0.0000E+00  0.4188E-01
      8.707  0.0000E+00  0.4188E-01
      8.778  0.0000E+00  0.4188E-01
      8.848  0.0000E+00  0.4188E-01
      8.919 -0.8103E-28  0.4188E-01
      8.989 -0.1931E-25  0.4188E-01
      9.059 -0.3593E-23  0.4188E-01
      9.130 -0.5205E-21  0.4188E-01
      9.200 -0.5866E-19  0.4188E-01
      9.271 -0.5141E-17  0.4188E-01
      9.341 -0.3338E-15  0.4188E-01
      9.412 -0.1795E-13  0.4188E-01
      9.482 -0.7340E-12  0.4188E-01
      9.552 -0.2326E-10  0.4188E-01
      9.623 -0.5699E-09  0.4188E-01
      9.693 -0.1078E-07  0.4188E-01
      9.764 -0.1570E-06  0.4188E-01
      9.834 -0.1752E-05  0.4188E-01
      9.905 -0.1490E-04  0.4188E-01
      9.975 -0.9570E-04  0.4188E-01
     10.045 -0.4568E-03  0.4184E-01
     10.116 -0.1573E-02  0.4173E-01
     10.186 -0.3639E-02  0.4148E-01
     10.257 -0.4343E-02  0.4117E-01
     10.327  0.3468E-02  0.4142E-01
     10.397  0.2741E-01  0.4335E-01
     10.468  0.6239E-01  0.4774E-01
     10.538  0.8584E-01  0.5379E-01
     10.609  0.7818E-01  0.5929E-01
     10.679  0.4609E-01  0.6254E-01
     10.750  0.1426E-01  0.6354E-01
     10.820 -0.1800E-02  0.6342E-01
     10.890 -0.4601E-02  0.6309E-01
     10.961 -0.2935E-02  0.6288E-01
     11.031 -0.1924E-02  0.6275E-01
     11.102 -0.2282E-02  0.6259E-01
     11.172 -0.1862E-02  0.6246E-01
     11.243  0.3720E-02  0.6272E-01
     11.313  0.1757E-01  0.6396E-01
     11.383  0.3492E-01  0.6642E-01
     11.454  0.4354E-01  0.6948E-01
     11.524  0.3606E-01  0.7202E-01
     11.595  0.1891E-01  0.7335E-01
     11.665  0.4499E-02  0.7367E-01
     11.736 -0.1642E-02  0.7355E-01
     11.806 -0.2118E-02  0.7340E-01
     11.876 -0.1069E-02  0.7333E-01
     11.947 -0.3472E-03  0.7331E-01
     12.017 -0.8011E-04  0.7330E-01
     12.088 -0.1364E-04  0.7330E-01
     12.158 -0.1747E-05  0.7330E-01
     12.229 -0.1701E-06  0.7330E-01
     12.299 -0.1268E-07  0.7330E-01
     12.369 -0.7263E-09  0.7330E-01
     12.440 -0.3210E-10  0.7330E-01
     12.510 -0.1096E-11  0.7330E-01
     12.581 -0.2902E-13  0.7330E-01
     12.651 -0.5943E-15  0.7330E-01
     12.722  0.0000E+00  0.7330E-01
     12.792  0.0000E+00  0.7330E-01
     12.862  0.0000E+00  0.7330E-01
     12.933  0.0000E+00  0.7330E-01
     13.003  0.0000E+00  0.7330E-01
     13.074  0.0000E+00  0.7330E-01
     13.144  0.0000E+00  0.7330E-01
     13.214  0.0000E+00  0.7330E-01
     13.285  0.0000E+00  0.7330E-01
     13.355  0.0000E+00  0.7330E-01
     13.426  0.0000E+00  0.7330E-01
     13.496  0.0000E+00  0.7330E-01
     13.567  0.0000E+00  0.7330E-01
     13.637  0.0000E+00  0.7330E-01
     13.707  0.0000E+00  0.7330E-01
     13.778  0.0000E+00  0.7330E-01
     13.848  0.0000E+00  0.7330E-01
     13.919  0.0000E+00  0.7330E-01
     13.989  0.0000E+00  0.7330E-01
     14.060  0.0000E+00  0.7330E-01
     14.130  0.0000E+00  0.7330E-01
     14.200  0.0000E+00  0.7330E-01
     14.271  0.0000E+00  0.7330E-01
     14.341  0.0000E+00  0.7330E-01
     14.412  0.0000E+00  0.7330E-01
     14.482  0.0000E+00  0.7330E-01
     14.553  0.0000E+00  0.7330E-01
     14.623 -0.3540E-30  0.7330E-01
     14.693 -0.1039E-27  0.7330E-01
     14.764 -0.2381E-25  0.7330E-01
     14.834 -0.4247E-23  0.7330E-01
     14.905 -0.5895E-21  0.7330E-01
     14.975 -0.6367E-19  0.7330E-01
     15.046 -0.5348E-17  0.7330E-01
     15.116 -0.3409E-15  0.7330E-01
     15.186 -0.1713E-13  0.7330E-01
     15.257 -0.6708E-12  0.7330E-01
     15.327 -0.2035E-10  0.7330E-01
     15.398 -0.4775E-09  0.7330E-01
     15.468 -0.8642E-08  0.7330E-01
     15.538 -0.1203E-06  0.7330E-01
     15.609 -0.1283E-05  0.7330E-01
     15.679 -0.1042E-04  0.7330E-01
     15.750 -0.6370E-04  0.7329E-01
     15.820 -0.2885E-03  0.7327E-01
     15.891 -0.9352E-03  0.7321E-01
     15.961 -0.1993E-02  0.7307E-01
     16.031 -0.1940E-02  0.7293E-01
     16.102  0.3145E-02  0.7315E-01
     16.172  0.1650E-01  0.7431E-01
     16.243  0.3396E-01  0.7671E-01
     16.313  0.4347E-01  0.7977E-01
     16.384  0.3693E-01  0.8237E-01
     16.454  0.2001E-01  0.8378E-01
     16.524  0.5158E-02  0.8414E-01
     16.595 -0.1474E-02  0.8404E-01
     16.665 -0.2166E-02  0.8388E-01
     16.736 -0.1132E-02  0.8380E-01
     16.806 -0.3763E-03  0.8378E-01
     16.877 -0.8855E-04  0.8377E-01
     16.947 -0.1536E-04  0.8377E-01
     17.017 -0.2001E-05  0.8377E-01
     17.088 -0.1981E-06  0.8377E-01
     17.158 -0.1501E-07  0.8377E-01
     17.229 -0.8740E-09  0.8377E-01
     17.299 -0.3925E-10  0.8377E-01
     17.370 -0.1362E-11  0.8377E-01
     17.440 -0.3665E-13  0.8377E-01
     17.510 -0.7593E-15  0.8377E-01
     17.581  0.0000E+00  0.8377E-01
     17.651  0.0000E+00  0.8377E-01
     17.722  0.0000E+00  0.8377E-01
     17.792  0.0000E+00  0.8377E-01
     17.862  0.0000E+00  0.8377E-01
     17.933  0.0000E+00  0.8377E-01
     18.003  0.0000E+00  0.8377E-01
     18.074  0.0000E+00  0.8377E-01
     18.144  0.0000E+00  0.8377E-01
     18.215  0.0000E+00  0.8377E-01
     18.285  0.0000E+00  0.8377E-01
