       N       E                     dE             d eps       ncg     rms          rms(c)
DAV:   1     0.503490867403E+01    0.50349E+01   -0.30339E+03    20   0.555E+02
DAV:   2    -0.139348926595E+02   -0.18970E+02   -0.18903E+02    30   0.982E+01
DAV:   3    -0.142901720552E+02   -0.35528E+00   -0.27617E+00    22   0.106E+01
DAV:   4    -0.142929266796E+02   -0.27546E-02   -0.27498E-02    36   0.110E+00
DAV:   5    -0.142929267824E+02   -0.10279E-06   -0.10305E-06    22   0.709E-03    0.179E+00
DAV:   6    -0.142445678673E+02    0.48359E-01   -0.59546E-03    36   0.553E-01    0.111E+00
DAV:   7    -0.142089495726E+02    0.35618E-01   -0.19032E-02    28   0.938E-01    0.473E-02
DAV:   8    -0.142089702915E+02   -0.20719E-04   -0.76470E-05    36   0.799E-02
   1 F= -.14208970E+02 E0= -.14159189E+02  d E =-.149344E+00
