<?xml version="1.0" encoding="ISO-8859-1"?>
<modeling>
 <generator>
  <i name="program" type="string">vasp </i>
  <i name="version" type="string">5.2.2  </i>
  <i name="subversion" type="string">15Apr09 complex  parallel </i>
  <i name="platform" type="string">LinuxIFC </i>
  <i name="date" type="string">2013 08 21 </i>
  <i name="time" type="string">16:12:18 </i>
 </generator>
 <incar>
  <i type="string" name="PREC">accurate</i>
  <i type="int" name="IBRION">    -1</i>
  <i type="int" name="NSW">     0</i>
  <i type="int" name="ISIF">     2</i>
  <i name="ENCUT">    360.65550000</i>
  <i type="int" name="ISMEAR">     1</i>
  <i name="SIGMA">      0.20000000</i>
  <i type="logical" name="LWAVE"> T  </i>
  <i type="logical" name="LCHARG"> F  </i>
  <i type="logical" name="LPEAD"> F  </i>
  <i type="logical" name="LCALCPOL"> F  </i>
  <i type="logical" name="LCALCEPS"> F  </i>
  <v name="EFIELD_PEAD">      0.00000000      0.00000000      0.00000000</v>
  <i type="logical" name="LEFG"> F  </i>
 </incar>
 <kpoints>
  <generation param="Monkhorst-Pack">
   <v type="int" name="divisions">       2        2        2 </v>
   <v name="usershift">      0.00000000       0.00000000       0.00000000 </v>
   <v name="genvec1">      0.50000000       0.00000000       0.00000000 </v>
   <v name="genvec2">      0.00000000       0.50000000       0.00000000 </v>
   <v name="genvec3">      0.00000000       0.00000000       0.50000000 </v>
   <v name="shift">      0.50000000       0.50000000       0.50000000 </v>
  </generation>
  <varray name="kpointlist" >
   <v>       0.25000000       0.25000000       0.25000000 </v>
  </varray>
  <varray name="weights" >
   <v>       1.00000000 </v>
  </varray>
 </kpoints>
 <parameters>
  <separator name="general" >
   <i type="string" name="SYSTEM">unknown system</i>
   <i type="logical" name="LCOMPAT"> F  </i>
  </separator>
  <separator name="electronic" >
   <i type="string" name="PREC">accura</i>
   <i name="ENMAX">    360.65550000</i>
   <i name="ENAUG">    291.05200000</i>
   <i name="EDIFF">      0.00010000</i>
   <i type="int" name="IALGO">    38</i>
   <i type="int" name="IWAVPR">    10</i>
   <i type="int" name="NBANDS">     8</i>
   <i name="NELECT">      9.00000000</i>
   <separator name="electronic smearing" >
    <i type="int" name="ISMEAR">     1</i>
    <i name="SIGMA">      0.20000000</i>
   </separator>
   <separator name="electronic projectors" >
    <i type="logical" name="LREAL"> F  </i>
    <v name="ROPT">      0.00000000</v>
    <i type="int" name="LMAXPAW">  -100</i>
    <i type="int" name="LMAXMIX">     2</i>
   </separator>
   <separator name="electronic startup" >
    <i type="int" name="ISTART">     0</i>
    <i type="int" name="ICHARG">     2</i>
    <i type="int" name="INIWAV">     1</i>
   </separator>
   <separator name="electronic spin" >
    <i type="int" name="ISPIN">     1</i>
    <i type="logical" name="LNONCOLLINEAR"> F  </i>
    <v name="MAGMOM">      1.00000000      1.00000000      1.00000000</v>
    <i name="NUPDOWN">     -1.00000000</i>
    <i type="logical" name="LSORBIT"> F  </i>
    <v name="SAXIS">      0.00000000      0.00000000      1.00000000</v>
    <i type="logical" name="LSPIRAL"> F  </i>
    <v name="QSPIRAL">      0.00000000      0.00000000      0.00000000</v>
    <i type="logical" name="LZEROZ"> F  </i>
   </separator>
   <separator name="electronic exchange-correlation" >
    <i type="logical" name="LASPH"> F  </i>
    <i type="logical" name="LMETAGGA"> F  </i>
   </separator>
   <separator name="electronic convergence" >
    <i type="int" name="NELM">    60</i>
    <i type="int" name="NELMDL">    -5</i>
    <i type="int" name="NELMIN">     2</i>
    <i name="ENINI">    360.65550000</i>
    <separator name="electronic convergence detail" >
     <i type="logical" name="LDIAG"> T  </i>
     <i name="WEIMIN">      0.00000000</i>
     <i name="EBREAK">      0.00000313</i>
     <i name="DEPER">      0.30000000</i>
     <i type="int" name="NRMM">     4</i>
     <i name="TIME">      0.40000000</i>
    </separator>
   </separator>
   <separator name="electronic mixer" >
    <i name="AMIX">      0.40000000</i>
    <i name="BMIX">      1.00000000</i>
    <i name="AMIN">      0.10000000</i>
    <i name="AMIX_MAG">      1.60000000</i>
    <i name="BMIX_MAG">      1.00000000</i>
    <separator name="electronic mixer details" >
     <i type="int" name="IMIX">     4</i>
     <i type="int" name="MAXMIX">   -45</i>
     <i name="WC">    100.00000000</i>
     <i type="int" name="INIMIX">     1</i>
     <i type="int" name="MIXPRE">     1</i>
     <i type="int" name="MREMOVE">     5</i>
    </separator>
   </separator>
   <separator name="electronic dipolcorrection" >
    <i type="logical" name="LDIPOL"> F  </i>
    <i type="logical" name="LMONO"> F  </i>
    <i type="int" name="IDIPOL">     0</i>
    <i name="EPSILON">      1.00000000</i>
    <v name="DIPOL">   -100.00000000   -100.00000000   -100.00000000</v>
    <i name="EFIELD">      0.00000000</i>
   </separator>
  </separator>
  <separator name="grids" >
   <i type="int" name="NGX">    24</i>
   <i type="int" name="NGY">    24</i>
   <i type="int" name="NGZ">    24</i>
   <i type="int" name="NGXF">    48</i>
   <i type="int" name="NGYF">    48</i>
   <i type="int" name="NGZF">    48</i>
   <i type="logical" name="ADDGRID"> F  </i>
  </separator>
  <separator name="ionic" >
   <i type="int" name="NSW">     0</i>
   <i type="int" name="IBRION">    -1</i>
   <i type="int" name="ISIF">     2</i>
   <i name="PSTRESS">      0.00000000</i>
   <i name="EDIFFG">      0.00100000</i>
   <i type="int" name="NFREE">     0</i>
   <i name="POTIM">      0.50000000</i>
   <i name="SMASS">     -3.00000000</i>
  </separator>
  <separator name="ionic md" >
   <i name="TEBEG">      0.00010000</i>
   <i name="TEEND">      0.00010000</i>
   <i type="int" name="NBLOCK">     1</i>
   <i type="int" name="KBLOCK">     1</i>
   <i type="int" name="NPACO">   256</i>
   <i name="APACO">     16.00000000</i>
  </separator>
  <separator name="symmetry" >
   <i type="int" name="ISYM">     2</i>
   <i name="SYMPREC">      0.00001000</i>
  </separator>
  <separator name="dos" >
   <i type="logical" name="LORBIT"> F  </i>
   <v name="RWIGS">     -1.00000000</v>
   <i type="int" name="NEDOS">   301</i>
   <i name="EMIN">     10.00000000</i>
   <i name="EMAX">    -10.00000000</i>
   <i name="EFERMI">      0.00000000</i>
  </separator>
  <separator name="writing" >
   <i type="int" name="NWRITE">     2</i>
   <i type="logical" name="LWAVE"> T  </i>
   <i type="logical" name="LCHARG"> F  </i>
   <i type="logical" name="LPARD"> F  </i>
   <i type="logical" name="LVTOT"> F  </i>
   <i type="logical" name="LELF"> F  </i>
   <i type="logical" name="LOPTICS"> F  </i>
   <v name="STM">      0.00000000      0.00000000      0.00000000      0.00000000      0.00000000</v>
  </separator>
  <separator name="performance" >
   <i type="int" name="NPAR">     1</i>
   <i type="int" name="NSIM">     4</i>
   <i type="int" name="NBLK">    32</i>
   <i type="logical" name="LPLANE"> T  </i>
   <i type="logical" name="LSCALAPACK"> F  </i>
   <i type="logical" name="LSCAAWARE"> F  </i>
   <i type="logical" name="LSCALU"> F  </i>
   <i type="logical" name="LASYNC"> F  </i>
  </separator>
  <separator name="miscellaneous" >
   <i type="int" name="IDIOT">     3</i>
   <i type="logical" name="LMUSIC"> F  </i>
   <v name="POMASS">     26.98200000</v>
   <i type="logical" name="LCORR"> T  </i>
  </separator>
  <i type="logical" name="LREAL_COMPAT"> F  </i>
  <i type="logical" name="GGA_COMPAT"> T  </i>
  <i type="logical" name="LBERRY"> F  </i>
  <i type="int" name="ICORELEVEL">     0</i>
  <i type="logical" name="LDAU"> F  </i>
  <i type="int" name="I_CONSTRAINED_M">     0</i>
  <separator name="electronic exchange-correlation" >
   <i type="string" name="GGA">--</i>
   <i type="int" name="VOSKOWN">     0</i>
   <i type="logical" name="LHFCALC"> F  </i>
   <i type="logical" name="LHFONE"> F  </i>
   <i type="logical" name="LRHFCALC"> F  </i>
   <i type="logical" name="LTHOMAS"> F  </i>
   <i type="logical" name="LMODELHF"> F  </i>
   <i name="ENCUTFOCK">      0.00000000</i>
   <i name="ENCUT4O">     -1.00000000</i>
   <i type="int" name="EXXOEP">     0</i>
   <i type="int" name="FOURORBIT">     0</i>
   <i name="AEXX">      0.00000000</i>
   <i name="HFALPHA">      0.00000000</i>
   <i name="ALDAX">      1.00000000</i>
   <i name="AGGAX">      1.00000000</i>
   <i name="ALDAC">      1.00000000</i>
   <i name="AGGAC">      1.00000000</i>
   <i type="int" name="NKREDX">     1</i>
   <i type="int" name="NKREDY">     1</i>
   <i type="int" name="NKREDZ">     1</i>
   <i type="logical" name="SHIFTRED"> F  </i>
   <i type="logical" name="ODDONLY"> F  </i>
   <i type="logical" name="EVENONLY"> F  </i>
   <i type="int" name="LMAXFOCK">     0</i>
   <i type="int" name="NMAXFOCKAE">     0</i>
   <i name="HFSCREEN">      0.00000000</i>
   <i name="HFSCREENC">      0.00000000</i>
  </separator>
  <separator name="model GW" >
   <i type="int" name="MODEL_GW">     0</i>
   <i name="MODEL_EPS0">      8.57500000</i>
   <i name="MODEL_ALPHA">      1.00000000</i>
  </separator>
  <separator name="linear response parameters" >
   <i type="logical" name="LEPSILON"> F  </i>
   <i type="logical" name="LRPA"> F  </i>
   <i type="logical" name="LNABLA"> F  </i>
   <i type="logical" name="LVEL"> F  </i>
   <i type="int" name="KINTER">     0</i>
   <i name="CSHIFT">      0.10000000</i>
   <i name="OMEGAMAX">     -1.00000000</i>
  </separator>
  <separator name="orbital magnetization" >
   <i type="logical" name="ORBITALMAG"> F  </i>
   <i type="logical" name="LMAGBLOCH"> F  </i>
   <i type="logical" name="LCHIMAG"> F  </i>
   <i type="logical" name="LGAUGE"> T  </i>
   <i type="int" name="MAGATOM">     0</i>
   <v name="MAGDIPOL">      0.00000000      0.00000000      0.00000000</v>
   <v name="AVECCONST">      0.00000000      0.00000000      0.00000000</v>
  </separator>
  <separator name="response functions" >
   <i type="logical" name="LRPA"> T  </i>
   <i type="logical" name="LTCTE"> F  </i>
   <i type="logical" name="LTETE"> F  </i>
   <i type="logical" name="L2ORDER"> F  </i>
   <i type="logical" name="LGWLF"> F  </i>
   <i name="ENCUTGW">    240.43700000</i>
   <i name="ENCUTGWSOFT">     -2.00000000</i>
   <i name="ENCUTLF">     -1.00000000</i>
   <i type="int" name="LMAXMP2">    -1</i>
   <i name="SCISSOR">      0.00000000</i>
   <i type="int" name="NOMEGA">     0</i>
   <i type="int" name="NOMEGAR">     0</i>
   <i type="int" name="NBANDSGW">    -1</i>
   <i type="int" name="NBANDSLF">    -1</i>
   <i type="int" name="NELM">     1</i>
   <i type="int" name="DIM">     3</i>
   <i type="int" name="ANTIRES">     0</i>
   <i type="logical" name="LUSEW"> F  </i>
   <i name="OMEGAMAX">    -30.00000000</i>
   <i name="OMEGATL">   -200.00000000</i>
   <i type="int" name="OMEGAGRID">     0</i>
   <i name="CSHIFT">     -0.10000000</i>
   <i type="logical" name="SELFENERGY"> F  </i>
   <i type="logical" name="LSPECTRAL"> F  </i>
   <i type="logical" name="ODDONLYGW"> F  </i>
   <i type="logical" name="EVENONLYGW"> F  </i>
   <i type="int" name="NKREDLFX">     1</i>
   <i type="int" name="NKREDLFY">     1</i>
   <i type="int" name="NKREDLFZ">     1</i>
   <i type="int" name="MAXMEM">  1024</i>
   <i type="int" name="TELESCOPE">     0</i>
  </separator>
 </parameters>
 <atominfo>
  <atoms>       3 </atoms>
  <types>       1 </types>
  <array name="atoms" >
   <dimension dim="1">ion</dimension>
   <field type="string">element</field>
   <field type="int">atomtype</field>
   <set>
    <rc><c>Al</c><c>   1</c></rc>
    <rc><c>Al</c><c>   1</c></rc>
    <rc><c>Al</c><c>   1</c></rc>
   </set>
  </array>
  <array name="atomtypes" >
   <dimension dim="1">type</dimension>
   <field type="int">atomspertype</field>
   <field type="string">element</field>
   <field>mass</field>
   <field>valence</field>
   <field type="string">pseudopotential</field>
   <set>
    <rc><c>   3</c><c>Al</c><c>     26.98200000</c><c>      3.00000000</c><c> PAW_GGA Al 05Jan2001                   </c></rc>
   </set>
  </array>
 </atominfo>
 <structure name="initialpos" >
  <crystal>
   <varray name="basis" >
    <v>       3.50000000       0.00000000       0.00000000 </v>
    <v>       0.00000000       3.50000000       0.00000000 </v>
    <v>       0.00000000       0.00000000       3.50000000 </v>
   </varray>
   <i name="volume">     42.87500000 </i>
   <varray name="rec_basis" >
    <v>       0.28571429       0.00000000       0.00000000 </v>
    <v>       0.00000000       0.28571429       0.00000000 </v>
    <v>       0.00000000       0.00000000       0.28571429 </v>
   </varray>
  </crystal>
  <varray name="positions" >
   <v>       0.50000000       0.50000000       0.00000000 </v>
   <v>       0.00000000       0.50000000       0.50000000 </v>
   <v>       0.50000000       0.00000000       0.50000000 </v>
  </varray>
 </structure>
 <calculation>
  <scstep>
   <time name="dav">    0.35    0.11</time>
   <time name="total">    1.06    0.63</time>
   <energy>
    <i name="alphaZ">     -0.53451638 </i>
    <i name="ewald">   -222.29814539 </i>
    <i name="hartreedc">     -2.67604008 </i>
    <i name="XCdc">    -78.29240780 </i>
    <i name="pawpsdc">    106.97730018 </i>
    <i name="pawaedc">    -10.81747568 </i>
    <i name="eentropy">     -0.05641896 </i>
    <i name="bandstr">     49.18811387 </i>
    <i name="atom">    161.07115403 </i>
    <i name="e_fr_energy">      2.56156379 </i>
    <i name="e_wo_entrp">      2.61798275 </i>
    <i name="e_0_energy">      2.58037011 </i>
   </energy>
  </scstep>
  <scstep>
   <time name="dav">    0.48    0.12</time>
   <time name="total">    0.49    0.12</time>
   <energy>
    <i name="e_fr_energy">     -8.84051534 </i>
    <i name="e_wo_entrp">     -8.77286104 </i>
    <i name="e_0_energy">     -8.81796391 </i>
   </energy>
  </scstep>
  <scstep>
   <time name="dav">    0.30    0.07</time>
   <time name="total">    0.31    0.08</time>
   <energy>
    <i name="e_fr_energy">     -8.92644539 </i>
    <i name="e_wo_entrp">     -8.84392257 </i>
    <i name="e_0_energy">     -8.89893778 </i>
   </energy>
  </scstep>
  <scstep>
   <time name="dav">    0.38    0.09</time>
   <time name="total">    0.38    0.10</time>
   <energy>
    <i name="e_fr_energy">     -8.92656574 </i>
    <i name="e_wo_entrp">     -8.84404288 </i>
    <i name="e_0_energy">     -8.89905812 </i>
   </energy>
  </scstep>
  <scstep>
   <time name="dav">    0.38    0.09</time>
   <time name="total">    0.54    0.14</time>
   <energy>
    <i name="e_fr_energy">     -8.92656575 </i>
    <i name="e_wo_entrp">     -8.84404289 </i>
    <i name="e_0_energy">     -8.89905813 </i>
   </energy>
  </scstep>
  <scstep>
   <time name="dav">    0.19    0.06</time>
   <time name="total">    0.66    0.36</time>
   <energy>
    <i name="e_fr_energy">     -8.75553412 </i>
    <i name="e_wo_entrp">     -8.67301125 </i>
    <i name="e_0_energy">     -8.72802650 </i>
   </energy>
  </scstep>
  <scstep>
   <time name="dav">    0.19    0.05</time>
   <time name="total">    0.67    0.37</time>
   <energy>
    <i name="e_fr_energy">     -8.70553306 </i>
    <i name="e_wo_entrp">     -8.62301020 </i>
    <i name="e_0_energy">     -8.67802544 </i>
   </energy>
  </scstep>
  <scstep>
   <time name="dav">    0.35    0.09</time>
   <time name="total">    0.86    0.40</time>
   <energy>
    <i name="e_fr_energy">     -8.70560440 </i>
    <i name="e_wo_entrp">     -8.62308154 </i>
    <i name="e_0_energy">     -8.67809678 </i>
   </energy>
  </scstep>
  <scstep>
   <time name="dav">    0.27    0.07</time>
   <time name="total">    0.66    0.34</time>
   <energy>
    <i name="alphaZ">     -0.53451638 </i>
    <i name="ewald">   -222.29814539 </i>
    <i name="hartreedc">     -4.23420611 </i>
    <i name="XCdc">    -77.71365354 </i>
    <i name="pawpsdc">    113.60817391 </i>
    <i name="pawaedc">    -17.79158553 </i>
    <i name="eentropy">     -0.08252286 </i>
    <i name="bandstr">     39.26971206 </i>
    <i name="atom">    161.07115403 </i>
    <i name="e_fr_energy">     -8.70558981 </i>
    <i name="e_wo_entrp">     -8.62306694 </i>
    <i name="e_0_energy">     -8.67808219 </i>
   </energy>
  </scstep>
  <structure>
   <crystal>
    <varray name="basis" >
     <v>       3.50000000       0.00000000       0.00000000 </v>
     <v>       0.00000000       3.50000000       0.00000000 </v>
     <v>       0.00000000       0.00000000       3.50000000 </v>
    </varray>
    <i name="volume">     42.87500000 </i>
    <varray name="rec_basis" >
     <v>       0.28571429       0.00000000       0.00000000 </v>
     <v>       0.00000000       0.28571429       0.00000000 </v>
     <v>       0.00000000       0.00000000       0.28571429 </v>
    </varray>
   </crystal>
   <varray name="positions" >
    <v>       0.50000000       0.50000000       0.00000000 </v>
    <v>       0.00000000       0.50000000       0.50000000 </v>
    <v>       0.50000000       0.00000000       0.50000000 </v>
   </varray>
  </structure>
  <varray name="forces" >
   <v>       0.00000000       0.00000000       0.00000000 </v>
   <v>       0.00000000       0.00000000       0.00000000 </v>
   <v>       0.00000000       0.00000000       0.00000000 </v>
  </varray>
  <varray name="stress" >
   <v>     445.98000518       0.00000000       0.00000000 </v>
   <v>       0.00000000     445.98000518       0.00000000 </v>
   <v>       0.00000000       0.00000000     445.98000518 </v>
  </varray>
  <energy>
   <i name="e_fr_energy">     -8.70558981 </i>
   <i name="e_wo_entrp">     -8.67808219 </i>
   <i name="e_0_energy">     -0.08252286 </i>
  </energy>
  <time name="totalsc">    7.03    3.41</time>
  <eigenvalues>
   <array>
    <dimension dim="1">band</dimension>
    <dimension dim="2">kpoint</dimension>
    <dimension dim="3">spin</dimension>
    <field>eigene</field>
    <field>occ</field>
    <set>
     <set comment="spin 1">
      <set comment="kpoint 1">
       <r>   -0.8425    1.0000 </r>
       <r>    4.9145    1.0000 </r>
       <r>    5.1509    1.0000 </r>
       <r>    5.1509    1.0000 </r>
       <r>   10.5220    0.2500 </r>
       <r>   10.5220    0.2500 </r>
       <r>   11.4213    0.0000 </r>
       <r>   16.2861    0.0000 </r>
      </set>
     </set>
    </set>
   </array>
  </eigenvalues>
  <separator name="orbital magnetization" >
   <v name="MAGDIPOLOUT">      0.00000000      0.00000000      0.00000000</v>
  </separator>
  <dos>
   <i name="efermi">     10.45970519 </i>
   <total>
    <array>
     <dimension dim="1">gridpoints</dimension>
     <dimension dim="2">spin</dimension>
     <field>energy</field>
     <field>total</field>
     <field>integrated</field>
     <set>
      <set comment="spin 1">
       <r>  -2.8425   0.0000   0.0000 </r>
       <r>  -2.7721   0.0000   0.0000 </r>
       <r>  -2.7016   0.0000   0.0000 </r>
       <r>  -2.6312   0.0000   0.0000 </r>
       <r>  -2.5608   0.0000   0.0000 </r>
       <r>  -2.4903   0.0000   0.0000 </r>
       <r>  -2.4199   0.0000   0.0000 </r>
       <r>  -2.3495   0.0000   0.0000 </r>
       <r>  -2.2791   0.0000   0.0000 </r>
       <r>  -2.2086   0.0000   0.0000 </r>
       <r>  -2.1382   0.0000   0.0000 </r>
       <r>  -2.0678   0.0000   0.0000 </r>
       <r>  -1.9973   0.0000   0.0000 </r>
       <r>  -1.9269   0.0000   0.0000 </r>
       <r>  -1.8565   0.0000   0.0000 </r>
       <r>  -1.7861   0.0000   0.0000 </r>
       <r>  -1.7156   0.0000   0.0000 </r>
       <r>  -1.6452   0.0000   0.0000 </r>
       <r>  -1.5748   0.0000   0.0000 </r>
       <r>  -1.5043  -0.0004   0.0000 </r>
       <r>  -1.4339  -0.0029  -0.0002 </r>
       <r>  -1.3635  -0.0169  -0.0014 </r>
       <r>  -1.2931  -0.0720  -0.0065 </r>
       <r>  -1.2226  -0.2164  -0.0217 </r>
       <r>  -1.1522  -0.4138  -0.0509 </r>
       <r>  -1.0818  -0.2807  -0.0707 </r>
       <r>  -1.0113   0.9883  -0.0011 </r>
       <r>  -0.9409   3.8272   0.2685 </r>
       <r>  -0.8705   7.0582   0.7656 </r>
       <r>  -0.8001   8.3014   1.3502 </r>
       <r>  -0.7296   6.4809   1.8067 </r>
       <r>  -0.6592   3.1464   2.0283 </r>
       <r>  -0.5888   0.5975   2.0704 </r>
       <r>  -0.5183  -0.3711   2.0442 </r>
       <r>  -0.4479  -0.3803   2.0174 </r>
       <r>  -0.3775  -0.1783   2.0049 </r>
       <r>  -0.3071  -0.0550   2.0010 </r>
       <r>  -0.2366  -0.0121   2.0002 </r>
       <r>  -0.1662  -0.0020   2.0000 </r>
       <r>  -0.0958  -0.0002   2.0000 </r>
       <r>  -0.0253   0.0000   2.0000 </r>
       <r>   0.0451   0.0000   2.0000 </r>
       <r>   0.1155   0.0000   2.0000 </r>
       <r>   0.1859   0.0000   2.0000 </r>
       <r>   0.2564   0.0000   2.0000 </r>
       <r>   0.3268   0.0000   2.0000 </r>
       <r>   0.3972   0.0000   2.0000 </r>
       <r>   0.4677   0.0000   2.0000 </r>
       <r>   0.5381   0.0000   2.0000 </r>
       <r>   0.6085   0.0000   2.0000 </r>
       <r>   0.6789   0.0000   2.0000 </r>
       <r>   0.7494   0.0000   2.0000 </r>
       <r>   0.8198   0.0000   2.0000 </r>
       <r>   0.8902   0.0000   2.0000 </r>
       <r>   0.9607   0.0000   2.0000 </r>
       <r>   1.0311   0.0000   2.0000 </r>
       <r>   1.1015   0.0000   2.0000 </r>
       <r>   1.1719   0.0000   2.0000 </r>
       <r>   1.2424   0.0000   2.0000 </r>
       <r>   1.3128   0.0000   2.0000 </r>
       <r>   1.3832   0.0000   2.0000 </r>
       <r>   1.4537   0.0000   2.0000 </r>
       <r>   1.5241   0.0000   2.0000 </r>
       <r>   1.5945   0.0000   2.0000 </r>
       <r>   1.6649   0.0000   2.0000 </r>
       <r>   1.7354   0.0000   2.0000 </r>
       <r>   1.8058   0.0000   2.0000 </r>
       <r>   1.8762   0.0000   2.0000 </r>
       <r>   1.9467   0.0000   2.0000 </r>
       <r>   2.0171   0.0000   2.0000 </r>
       <r>   2.0875   0.0000   2.0000 </r>
       <r>   2.1579   0.0000   2.0000 </r>
       <r>   2.2284   0.0000   2.0000 </r>
       <r>   2.2988   0.0000   2.0000 </r>
       <r>   2.3692   0.0000   2.0000 </r>
       <r>   2.4397   0.0000   2.0000 </r>
       <r>   2.5101   0.0000   2.0000 </r>
       <r>   2.5805   0.0000   2.0000 </r>
       <r>   2.6509   0.0000   2.0000 </r>
       <r>   2.7214   0.0000   2.0000 </r>
       <r>   2.7918   0.0000   2.0000 </r>
       <r>   2.8622   0.0000   2.0000 </r>
       <r>   2.9327   0.0000   2.0000 </r>
       <r>   3.0031   0.0000   2.0000 </r>
       <r>   3.0735   0.0000   2.0000 </r>
       <r>   3.1439   0.0000   2.0000 </r>
       <r>   3.2144   0.0000   2.0000 </r>
       <r>   3.2848   0.0000   2.0000 </r>
       <r>   3.3552   0.0000   2.0000 </r>
       <r>   3.4257   0.0000   2.0000 </r>
       <r>   3.4961   0.0000   2.0000 </r>
       <r>   3.5665   0.0000   2.0000 </r>
       <r>   3.6369   0.0000   2.0000 </r>
       <r>   3.7074   0.0000   2.0000 </r>
       <r>   3.7778   0.0000   2.0000 </r>
       <r>   3.8482   0.0000   2.0000 </r>
       <r>   3.9187   0.0000   2.0000 </r>
       <r>   3.9891   0.0000   2.0000 </r>
       <r>   4.0595   0.0000   2.0000 </r>
       <r>   4.1299   0.0000   2.0000 </r>
       <r>   4.2004  -0.0001   2.0000 </r>
       <r>   4.2708  -0.0007   1.9999 </r>
       <r>   4.3412  -0.0048   1.9996 </r>
       <r>   4.4117  -0.0254   1.9978 </r>
       <r>   4.4821  -0.0997   1.9908 </r>
       <r>   4.5525  -0.2740   1.9715 </r>
       <r>   4.6229  -0.4671   1.9386 </r>
       <r>   4.6934  -0.2235   1.9229 </r>
       <r>   4.7638   1.1876   2.0065 </r>
       <r>   4.8342   3.9152   2.2822 </r>
       <r>   4.9047   6.9970   2.7750 </r>
       <r>   4.9751   9.6845   3.4571 </r>
       <r>   5.0455  12.6510   4.3481 </r>
       <r>   5.1159  15.9247   5.4696 </r>
       <r>   5.1864  16.8448   6.6560 </r>
       <r>   5.2568  13.1106   7.5794 </r>
       <r>   5.3272   6.6147   8.0452 </r>
       <r>   5.3977   1.4185   8.1451 </r>
       <r>   5.4681  -0.7042   8.0955 </r>
       <r>   5.5385  -0.8031   8.0390 </r>
       <r>   5.6089  -0.3936   8.0112 </r>
       <r>   5.6794  -0.1256   8.0024 </r>
       <r>   5.7498  -0.0286   8.0004 </r>
       <r>   5.8202  -0.0048   8.0000 </r>
       <r>   5.8907  -0.0006   8.0000 </r>
       <r>   5.9611  -0.0001   8.0000 </r>
       <r>   6.0315   0.0000   8.0000 </r>
       <r>   6.1019   0.0000   8.0000 </r>
       <r>   6.1724   0.0000   8.0000 </r>
       <r>   6.2428   0.0000   8.0000 </r>
       <r>   6.3132   0.0000   8.0000 </r>
       <r>   6.3837   0.0000   8.0000 </r>
       <r>   6.4541   0.0000   8.0000 </r>
       <r>   6.5245   0.0000   8.0000 </r>
       <r>   6.5949   0.0000   8.0000 </r>
       <r>   6.6654   0.0000   8.0000 </r>
       <r>   6.7358   0.0000   8.0000 </r>
       <r>   6.8062   0.0000   8.0000 </r>
       <r>   6.8767   0.0000   8.0000 </r>
       <r>   6.9471   0.0000   8.0000 </r>
       <r>   7.0175   0.0000   8.0000 </r>
       <r>   7.0879   0.0000   8.0000 </r>
       <r>   7.1584   0.0000   8.0000 </r>
       <r>   7.2288   0.0000   8.0000 </r>
       <r>   7.2992   0.0000   8.0000 </r>
       <r>   7.3697   0.0000   8.0000 </r>
       <r>   7.4401   0.0000   8.0000 </r>
       <r>   7.5105   0.0000   8.0000 </r>
       <r>   7.5809   0.0000   8.0000 </r>
       <r>   7.6514   0.0000   8.0000 </r>
       <r>   7.7218   0.0000   8.0000 </r>
       <r>   7.7922   0.0000   8.0000 </r>
       <r>   7.8627   0.0000   8.0000 </r>
       <r>   7.9331   0.0000   8.0000 </r>
       <r>   8.0035   0.0000   8.0000 </r>
       <r>   8.0739   0.0000   8.0000 </r>
       <r>   8.1444   0.0000   8.0000 </r>
       <r>   8.2148   0.0000   8.0000 </r>
       <r>   8.2852   0.0000   8.0000 </r>
       <r>   8.3557   0.0000   8.0000 </r>
       <r>   8.4261   0.0000   8.0000 </r>
       <r>   8.4965   0.0000   8.0000 </r>
       <r>   8.5669   0.0000   8.0000 </r>
       <r>   8.6374   0.0000   8.0000 </r>
       <r>   8.7078   0.0000   8.0000 </r>
       <r>   8.7782   0.0000   8.0000 </r>
       <r>   8.8487   0.0000   8.0000 </r>
       <r>   8.9191   0.0000   8.0000 </r>
       <r>   8.9895   0.0000   8.0000 </r>
       <r>   9.0599   0.0000   8.0000 </r>
       <r>   9.1304   0.0000   8.0000 </r>
       <r>   9.2008   0.0000   8.0000 </r>
       <r>   9.2712   0.0000   8.0000 </r>
       <r>   9.3417   0.0000   8.0000 </r>
       <r>   9.4121   0.0000   8.0000 </r>
       <r>   9.4825   0.0000   8.0000 </r>
       <r>   9.5529   0.0000   8.0000 </r>
       <r>   9.6234   0.0000   8.0000 </r>
       <r>   9.6938   0.0000   8.0000 </r>
       <r>   9.7642   0.0000   8.0000 </r>
       <r>   9.8347  -0.0003   8.0000 </r>
       <r>   9.9051  -0.0029   7.9998 </r>
       <r>   9.9755  -0.0186   7.9985 </r>
       <r>  10.0459  -0.0885   7.9922 </r>
       <r>  10.1164  -0.3036   7.9708 </r>
       <r>  10.1868  -0.6992   7.9216 </r>
       <r>  10.2572  -0.8256   7.8635 </r>
       <r>  10.3276   0.6921   7.9122 </r>
       <r>  10.3981   5.2990   8.2854 </r>
       <r>  10.4685  11.9824   9.1293 </r>
       <r>  10.5389  16.4133  10.2853 </r>
       <r>  10.6094  14.8855  11.3336 </r>
       <r>  10.6798   8.7318  11.9486 </r>
       <r>  10.7502   2.6748  12.1370 </r>
       <r>  10.8206  -0.3599  12.1116 </r>
       <r>  10.8911  -0.8772  12.0499 </r>
       <r>  10.9615  -0.5569  12.0106 </r>
       <r>  11.0319  -0.3671  11.9848 </r>
       <r>  11.1024  -0.4369  11.9540 </r>
       <r>  11.1728  -0.3513  11.9293 </r>
       <r>  11.2432   0.7297  11.9807 </r>
       <r>  11.3136   3.3894  12.2194 </r>
       <r>  11.3841   6.6990  12.6912 </r>
       <r>  11.4545   8.3176  13.2770 </r>
       <r>  11.5249   6.8580  13.7600 </r>
       <r>  11.5954   3.5769  14.0119 </r>
       <r>  11.6658   0.8383  14.0709 </r>
       <r>  11.7362  -0.3187  14.0485 </r>
       <r>  11.8066  -0.4028  14.0201 </r>
       <r>  11.8771  -0.2021  14.0059 </r>
       <r>  11.9475  -0.0654  14.0013 </r>
       <r>  12.0179  -0.0150  14.0002 </r>
       <r>  12.0884  -0.0026  14.0000 </r>
       <r>  12.1588  -0.0003  14.0000 </r>
       <r>  12.2292   0.0000  14.0000 </r>
       <r>  12.2996   0.0000  14.0000 </r>
       <r>  12.3701   0.0000  14.0000 </r>
       <r>  12.4405   0.0000  14.0000 </r>
       <r>  12.5109   0.0000  14.0000 </r>
       <r>  12.5814   0.0000  14.0000 </r>
       <r>  12.6518   0.0000  14.0000 </r>
       <r>  12.7222   0.0000  14.0000 </r>
       <r>  12.7926   0.0000  14.0000 </r>
       <r>  12.8631   0.0000  14.0000 </r>
       <r>  12.9335   0.0000  14.0000 </r>
       <r>  13.0039   0.0000  14.0000 </r>
       <r>  13.0744   0.0000  14.0000 </r>
       <r>  13.1448   0.0000  14.0000 </r>
       <r>  13.2152   0.0000  14.0000 </r>
       <r>  13.2856   0.0000  14.0000 </r>
       <r>  13.3561   0.0000  14.0000 </r>
       <r>  13.4265   0.0000  14.0000 </r>
       <r>  13.4969   0.0000  14.0000 </r>
       <r>  13.5674   0.0000  14.0000 </r>
       <r>  13.6378   0.0000  14.0000 </r>
       <r>  13.7082   0.0000  14.0000 </r>
       <r>  13.7786   0.0000  14.0000 </r>
       <r>  13.8491   0.0000  14.0000 </r>
       <r>  13.9195   0.0000  14.0000 </r>
       <r>  13.9899   0.0000  14.0000 </r>
       <r>  14.0604   0.0000  14.0000 </r>
       <r>  14.1308   0.0000  14.0000 </r>
       <r>  14.2012   0.0000  14.0000 </r>
       <r>  14.2716   0.0000  14.0000 </r>
       <r>  14.3421   0.0000  14.0000 </r>
       <r>  14.4125   0.0000  14.0000 </r>
       <r>  14.4829   0.0000  14.0000 </r>
       <r>  14.5534   0.0000  14.0000 </r>
       <r>  14.6238   0.0000  14.0000 </r>
       <r>  14.6942   0.0000  14.0000 </r>
       <r>  14.7646   0.0000  14.0000 </r>
       <r>  14.8351   0.0000  14.0000 </r>
       <r>  14.9055   0.0000  14.0000 </r>
       <r>  14.9759   0.0000  14.0000 </r>
       <r>  15.0464   0.0000  14.0000 </r>
       <r>  15.1168   0.0000  14.0000 </r>
       <r>  15.1872   0.0000  14.0000 </r>
       <r>  15.2576   0.0000  14.0000 </r>
       <r>  15.3281   0.0000  14.0000 </r>
       <r>  15.3985   0.0000  14.0000 </r>
       <r>  15.4689   0.0000  14.0000 </r>
       <r>  15.5394   0.0000  14.0000 </r>
       <r>  15.6098  -0.0002  14.0000 </r>
       <r>  15.6802  -0.0020  13.9998 </r>
       <r>  15.7506  -0.0121  13.9990 </r>
       <r>  15.8211  -0.0550  13.9951 </r>
       <r>  15.8915  -0.1783  13.9826 </r>
       <r>  15.9619  -0.3803  13.9558 </r>
       <r>  16.0324  -0.3711  13.9296 </r>
       <r>  16.1028   0.5975  13.9717 </r>
       <r>  16.1732   3.1464  14.1933 </r>
       <r>  16.2436   6.4809  14.6498 </r>
       <r>  16.3141   8.3014  15.2344 </r>
       <r>  16.3845   7.0582  15.7315 </r>
       <r>  16.4549   3.8272  16.0011 </r>
       <r>  16.5254   0.9883  16.0707 </r>
       <r>  16.5958  -0.2807  16.0509 </r>
       <r>  16.6662  -0.4138  16.0217 </r>
       <r>  16.7366  -0.2164  16.0065 </r>
       <r>  16.8071  -0.0720  16.0014 </r>
       <r>  16.8775  -0.0169  16.0002 </r>
       <r>  16.9479  -0.0029  16.0000 </r>
       <r>  17.0184  -0.0004  16.0000 </r>
       <r>  17.0888   0.0000  16.0000 </r>
       <r>  17.1592   0.0000  16.0000 </r>
       <r>  17.2296   0.0000  16.0000 </r>
       <r>  17.3001   0.0000  16.0000 </r>
       <r>  17.3705   0.0000  16.0000 </r>
       <r>  17.4409   0.0000  16.0000 </r>
       <r>  17.5114   0.0000  16.0000 </r>
       <r>  17.5818   0.0000  16.0000 </r>
       <r>  17.6522   0.0000  16.0000 </r>
       <r>  17.7226   0.0000  16.0000 </r>
       <r>  17.7931   0.0000  16.0000 </r>
       <r>  17.8635   0.0000  16.0000 </r>
       <r>  17.9339   0.0000  16.0000 </r>
       <r>  18.0044   0.0000  16.0000 </r>
       <r>  18.0748   0.0000  16.0000 </r>
       <r>  18.1452   0.0000  16.0000 </r>
       <r>  18.2156   0.0000  16.0000 </r>
       <r>  18.2861   0.0000  16.0000 </r>
      </set>
     </set>
    </array>
   </total>
  </dos>
 </calculation>
 <structure name="finalpos" >
  <crystal>
   <varray name="basis" >
    <v>       3.50000000       0.00000000       0.00000000 </v>
    <v>       0.00000000       3.50000000       0.00000000 </v>
    <v>       0.00000000       0.00000000       3.50000000 </v>
   </varray>
   <i name="volume">     42.87500000 </i>
   <varray name="rec_basis" >
    <v>       0.28571429       0.00000000       0.00000000 </v>
    <v>       0.00000000       0.28571429       0.00000000 </v>
    <v>       0.00000000       0.00000000       0.28571429 </v>
   </varray>
  </crystal>
  <varray name="positions" >
   <v>       0.50000000       0.50000000       0.00000000 </v>
   <v>       0.00000000       0.50000000       0.50000000 </v>
   <v>       0.50000000       0.00000000       0.50000000 </v>
  </varray>
 </structure>
</modeling>
