Disk quotas for user tam (uid 511): none
Processors received = 1
script running on host korczak.msae.wisc.edu
PBS_NODEFILE
korczak.local
 running on    1 nodes
 distr:  one band on    1 nodes,    1 groups
 vasp.5.2.2 15Apr09 complex 
 POSCAR found type information on POSCAR  Al
 POSCAR found :  1 types and    3 ions
 LDA part: xc-table for Ceperly-Alder, standard interpolation
 found WAVECAR, reading the header
 POSCAR, INCAR and KPOINTS ok, starting setup
 FFT: planning ...(           1 )
 reading WAVECAR
 the WAVECAR file was read sucessfully
 WARNING: chargedensity file is incomplete
 entering main loop
       N       E                     dE             d eps       ncg     rms          rms(c)
DAV:   1    -0.892545809717E+01   -0.89255E+01   -0.76406E-01    16   0.482E+00    0.211E+00
DAV:   2    -0.875632257540E+01    0.16914E+00   -0.23466E-01    16   0.274E+00    0.118E+00
DAV:   3    -0.870593368638E+01    0.50389E-01   -0.19021E-01    16   0.240E+00    0.286E-01
DAV:   4    -0.870561582312E+01    0.31786E-03   -0.61468E-03    16   0.637E-01    0.254E-02
DAV:   5    -0.870558916106E+01    0.26662E-04   -0.38189E-04    32   0.135E-01    0.128E-02
DAV:   6    -0.870557715113E+01    0.12010E-04   -0.11387E-05    16   0.311E-02    0.132E-03
DAV:   7    -0.870557713192E+01    0.19206E-07   -0.29169E-07    32   0.423E-03
   1 F= -.87055771E+01 E0= -.86780695E+01  d E =-.825229E-01
 Finite differences POTIM= 0.01000 DOF=   1
 bond charge predicted
       N       E                     dE             d eps       ncg     rms          rms(c)
DAV:   1    -0.870529999121E+01    0.27716E-03   -0.14761E-02    16   0.934E-01    0.556E-02
DAV:   2    -0.870521308110E+01    0.86910E-04   -0.43760E-04    32   0.161E-01    0.183E-02
DAV:   3    -0.870520276358E+01    0.10318E-04   -0.58811E-05    24   0.411E-02    0.448E-03
DAV:   4    -0.870520332809E+01   -0.56452E-06   -0.25619E-06    32   0.147E-02
   2 F= -.87052033E+01 E0= -.86777101E+01  d E =-.824796E-01
 Finite differences progress:
  Degree of freedom:   1/  1
  Displacement:        1/  2
  Total:               1/  2
 bond charge predicted
       N       E                     dE             d eps       ncg     rms          rms(c)
DAV:   1    -0.870559174169E+01   -0.38898E-03   -0.63244E-02    16   0.187E+00    0.111E-01
DAV:   2    -0.870524227119E+01    0.34947E-03   -0.17427E-03    32   0.322E-01    0.366E-02
DAV:   3    -0.870520049668E+01    0.41775E-04   -0.23350E-04    16   0.822E-02    0.898E-03
DAV:   4    -0.870520294646E+01   -0.24498E-05   -0.12389E-05    32   0.307E-02    0.456E-03
DAV:   5    -0.870520346274E+01   -0.51628E-06   -0.35561E-07    24   0.585E-03
   3 F= -.87052035E+01 E0= -.86777102E+01  d E =-.824798E-01
 Finite differences progress:
  Degree of freedom:   1/  1
  Displacement:        2/  2
  Total:               2/  2
 Finite differences POTIM=  1.000000000000000E-002
