   31   31  191    1
  0.1706118E+02  0.8087052E-09  0.8087052E-09  0.8087052E-09  0.5000000E-15
  1.000000000000000E-004
  CAR 
 unknown system                          
   93    1   72
 
  0.0000000E+00  0.0000000E+00  0.0000000E+00  0.1000000E+01
   1       -3.351118
   2       -1.374885
   3       -1.166333
   4       -1.114212
   5       -1.102962
   6       -0.981206
   7       -0.830650
   8        0.797976
   9        0.881157
  10        0.935104
  11        1.019418
  12        1.111863
  13        1.113053
  14        1.113262
  15        1.114135
  16        1.216687
  17        1.278850
  18        1.364261
  19        1.926615
  20        3.149037
  21        3.222501
  22        3.229057
  23        3.250683
  24        3.326261
  25        3.337277
  26        3.694590
  27        3.822032
  28        4.875614
  29        4.907340
  30        4.929675
  31        6.045251
  32        6.224900
  33        6.351804
  34        6.626084
  35        6.658718
  36        6.801412
  37        6.906136
  38        6.936456
  39        6.954681
  40        6.955207
  41        7.058412
  42        7.106773
  43        7.234960
  44        7.277642
  45        7.316665
  46        7.495516
  47        7.987299
  48        8.001609
  49        8.079596
  50        8.086259
  51        8.253042
  52        8.608621
  53        8.682877
  54        8.698264
  55        8.771934
  56        8.800075
  57        8.906196
  58        8.991625
  59        9.001539
  60        9.023494
  61        9.040315
  62        9.092393
  63        9.119783
  64        9.160102
  65        9.290720
  66        9.330274
  67        9.419095
  68        9.433230
  69        9.949844
  70       10.190990
  71       10.240220
  72       10.563602
