   3   3   0   0
  0.1429167E+02  0.3500000E-09  0.3500000E-09  0.3500000E-09  0.5000000E-15
  1.000000000000000E-004
  CAR 
 unknown system                          
     17.88127190     -2.62684199  301     10.29122903      1.00000000
     -2.627  0.0000E+00  0.0000E+00
     -2.558  0.0000E+00  0.0000E+00
     -2.490  0.0000E+00  0.0000E+00
     -2.422  0.0000E+00  0.0000E+00
     -2.353  0.0000E+00  0.0000E+00
     -2.285 -0.8701E-28 -0.5948E-29
     -2.217 -0.2148E-25 -0.1474E-26
     -2.148 -0.4201E-23 -0.2886E-24
     -2.080 -0.6490E-21 -0.4465E-22
     -2.012 -0.7917E-19 -0.5457E-20
     -1.943 -0.7623E-17 -0.5266E-18
     -1.875 -0.5792E-15 -0.4012E-16
     -1.807 -0.3308E-13 -0.2302E-14
     -1.738 -0.1587E-11 -0.1108E-12
     -1.670 -0.5879E-10 -0.4129E-11
     -1.601 -0.1712E-08 -0.1212E-09
     -1.533 -0.3914E-07 -0.2797E-08
     -1.465 -0.7012E-06 -0.5073E-07
     -1.396 -0.9820E-05 -0.7220E-06
     -1.328 -0.1071E-03 -0.8044E-05
     -1.260 -0.9055E-03 -0.6995E-04
     -1.191 -0.5887E-02 -0.4724E-03
     -1.123 -0.2907E-01 -0.2460E-02
     -1.055 -0.1066E+00 -0.9746E-02
     -0.986 -0.2764E+00 -0.2864E-01
     -0.918 -0.4395E+00 -0.5869E-01
     -0.849 -0.1211E+00 -0.6696E-01
     -0.781  0.1446E+01  0.3188E-01
     -0.713  0.4426E+01  0.3345E+00
     -0.644  0.7422E+01  0.8418E+00
     -0.576  0.8247E+01  0.1406E+01
     -0.508  0.6218E+01  0.1831E+01
     -0.439  0.2960E+01  0.2033E+01
     -0.371  0.5457E+00  0.2070E+01
     -0.303 -0.3728E+00  0.2045E+01
     -0.234 -0.3863E+00  0.2018E+01
     -0.166 -0.1888E+00  0.2005E+01
     -0.098 -0.6173E-01  0.2001E+01
     -0.029 -0.1467E-01  0.2000E+01
      0.039 -0.2619E-02  0.2000E+01
      0.108 -0.3575E-03  0.2000E+01
      0.176 -0.3767E-04  0.2000E+01
      0.244 -0.3085E-05  0.2000E+01
      0.313 -0.1971E-06  0.2000E+01
      0.381 -0.9853E-08  0.2000E+01
      0.449 -0.3864E-09  0.2000E+01
      0.518 -0.1190E-10  0.2000E+01
      0.586 -0.2858E-12  0.2000E+01
      0.654 -0.6496E-14  0.2000E+01
      0.723  0.0000E+00  0.2000E+01
      0.791  0.0000E+00  0.2000E+01
      0.860  0.0000E+00  0.2000E+01
      0.928  0.0000E+00  0.2000E+01
      0.996  0.0000E+00  0.2000E+01
      1.065  0.0000E+00  0.2000E+01
      1.133  0.0000E+00  0.2000E+01
      1.201  0.0000E+00  0.2000E+01
      1.270  0.0000E+00  0.2000E+01
      1.338  0.0000E+00  0.2000E+01
      1.406  0.0000E+00  0.2000E+01
      1.475  0.0000E+00  0.2000E+01
      1.543  0.0000E+00  0.2000E+01
      1.612  0.0000E+00  0.2000E+01
      1.680  0.0000E+00  0.2000E+01
      1.748  0.0000E+00  0.2000E+01
      1.817  0.0000E+00  0.2000E+01
      1.885  0.0000E+00  0.2000E+01
      1.953  0.0000E+00  0.2000E+01
      2.022  0.0000E+00  0.2000E+01
      2.090  0.0000E+00  0.2000E+01
      2.158  0.0000E+00  0.2000E+01
      2.227  0.0000E+00  0.2000E+01
      2.295  0.0000E+00  0.2000E+01
      2.363  0.0000E+00  0.2000E+01
      2.432  0.0000E+00  0.2000E+01
      2.500  0.0000E+00  0.2000E+01
      2.569  0.0000E+00  0.2000E+01
      2.637  0.0000E+00  0.2000E+01
      2.705  0.0000E+00  0.2000E+01
      2.774  0.0000E+00  0.2000E+01
      2.842  0.0000E+00  0.2000E+01
      2.910  0.0000E+00  0.2000E+01
      2.979  0.0000E+00  0.2000E+01
      3.047  0.0000E+00  0.2000E+01
      3.115  0.0000E+00  0.2000E+01
      3.184  0.0000E+00  0.2000E+01
      3.252  0.0000E+00  0.2000E+01
      3.321  0.0000E+00  0.2000E+01
      3.389  0.0000E+00  0.2000E+01
      3.457 -0.1751E-26  0.2000E+01
      3.526 -0.3738E-24  0.2000E+01
      3.594 -0.6332E-22  0.2000E+01
      3.662 -0.8478E-20  0.2000E+01
      3.731 -0.8970E-18  0.2000E+01
      3.799 -0.7498E-16  0.2000E+01
      3.867 -0.4951E-14  0.2000E+01
      3.936 -0.2507E-12  0.2000E+01
      4.004 -0.1025E-10  0.2000E+01
      4.072 -0.3308E-09  0.2000E+01
      4.141 -0.8404E-08  0.2000E+01
      4.209 -0.1678E-06  0.2000E+01
      4.278 -0.2628E-05  0.2000E+01
      4.346 -0.3221E-04  0.2000E+01
      4.414 -0.3078E-03  0.2000E+01
      4.483 -0.2282E-02  0.2000E+01
      4.551 -0.1303E-01  0.1999E+01
      4.619 -0.5662E-01  0.1995E+01
      4.688 -0.1830E+00  0.1983E+01
      4.756 -0.4198E+00  0.1954E+01
      4.824 -0.5896E+00  0.1914E+01
      4.893 -0.1018E+00  0.1907E+01
      4.961  0.1871E+01  0.2034E+01
      5.030  0.5682E+01  0.2423E+01
      5.098  0.1068E+02  0.3153E+01
      5.166  0.1544E+02  0.4209E+01
      5.235  0.1821E+02  0.5453E+01
      5.303  0.1740E+02  0.6643E+01
      5.371  0.1291E+02  0.7526E+01
      5.440  0.6812E+01  0.7991E+01
      5.508  0.1959E+01  0.8125E+01
      5.576 -0.3508E+00  0.8101E+01
      5.645 -0.7581E+00  0.8050E+01
      5.713 -0.4704E+00  0.8017E+01
      5.781 -0.1869E+00  0.8005E+01
      5.850 -0.5365E-01  0.8001E+01
      5.918 -0.1159E-01  0.8000E+01
      5.987 -0.1923E-02  0.8000E+01
      6.055 -0.2474E-03  0.8000E+01
      6.123 -0.2485E-04  0.8000E+01
      6.192 -0.1954E-05  0.8000E+01
      6.260 -0.1207E-06  0.8000E+01
      6.328 -0.5867E-08  0.8000E+01
      6.397 -0.2246E-09  0.8000E+01
      6.465 -0.6779E-11  0.8000E+01
      6.533 -0.1592E-12  0.8000E+01
      6.602 -0.3248E-14  0.8000E+01
      6.670  0.0000E+00  0.8000E+01
      6.739  0.0000E+00  0.8000E+01
      6.807  0.0000E+00  0.8000E+01
      6.875  0.0000E+00  0.8000E+01
      6.944  0.0000E+00  0.8000E+01
      7.012  0.0000E+00  0.8000E+01
      7.080  0.0000E+00  0.8000E+01
      7.149  0.0000E+00  0.8000E+01
      7.217  0.0000E+00  0.8000E+01
      7.285  0.0000E+00  0.8000E+01
      7.354  0.0000E+00  0.8000E+01
      7.422  0.0000E+00  0.8000E+01
      7.490  0.0000E+00  0.8000E+01
      7.559  0.0000E+00  0.8000E+01
      7.627  0.0000E+00  0.8000E+01
      7.696  0.0000E+00  0.8000E+01
      7.764  0.0000E+00  0.8000E+01
      7.832  0.0000E+00  0.8000E+01
      7.901  0.0000E+00  0.8000E+01
      7.969  0.0000E+00  0.8000E+01
      8.037  0.0000E+00  0.8000E+01
      8.106  0.0000E+00  0.8000E+01
      8.174  0.0000E+00  0.8000E+01
      8.242  0.0000E+00  0.8000E+01
      8.311  0.0000E+00  0.8000E+01
      8.379  0.0000E+00  0.8000E+01
      8.448 -0.6015E-27  0.8000E+01
      8.516 -0.1328E-24  0.8000E+01
      8.584 -0.2325E-22  0.8000E+01
      8.653 -0.3215E-20  0.8000E+01
      8.721 -0.3509E-18  0.8000E+01
      8.789 -0.3023E-16  0.8000E+01
      8.858 -0.2054E-14  0.8000E+01
      8.926 -0.1068E-12  0.8000E+01
      8.994 -0.4488E-11  0.8000E+01
      9.063 -0.1485E-09  0.8000E+01
      9.131 -0.3859E-08  0.8000E+01
      9.200 -0.7867E-07  0.8000E+01
      9.268 -0.1256E-05  0.8000E+01
      9.336 -0.1564E-04  0.8000E+01
      9.405 -0.1514E-03  0.8000E+01
      9.473 -0.1132E-02  0.8000E+01
      9.541 -0.6478E-02  0.7999E+01
      9.610 -0.2790E-01  0.7998E+01
      9.678 -0.8766E-01  0.7992E+01
      9.746 -0.1861E+00  0.7979E+01
      9.815 -0.1979E+00  0.7965E+01
      9.883  0.2111E+00  0.7980E+01
      9.951  0.1357E+01  0.8073E+01
     10.020  0.2970E+01  0.8276E+01
     10.088  0.4024E+01  0.8551E+01
     10.157  0.3633E+01  0.8799E+01
     10.225  0.2121E+01  0.8944E+01
     10.293  0.8379E+00  0.9001E+01
     10.362  0.8919E+00  0.9062E+01
     10.430  0.2168E+01  0.9210E+01
     10.498  0.3487E+01  0.9449E+01
     10.567  0.3824E+01  0.9710E+01
     10.635  0.3485E+01  0.9948E+01
     10.703  0.3692E+01  0.1020E+02
     10.772  0.4941E+01  0.1054E+02
     10.840  0.6315E+01  0.1097E+02
     10.909  0.6494E+01  0.1141E+02
     10.977  0.5028E+01  0.1176E+02
     11.045  0.2637E+01  0.1194E+02
     11.114  0.6484E+00  0.1198E+02
     11.182  0.2537E+00  0.1200E+02
     11.250  0.1933E+01  0.1213E+02
     11.319  0.4979E+01  0.1247E+02
     11.387  0.7490E+01  0.1298E+02
     11.455  0.7637E+01  0.1351E+02
     11.524  0.5367E+01  0.1387E+02
     11.592  0.2389E+01  0.1404E+02
     11.660  0.3682E+00  0.1406E+02
     11.729 -0.3467E+00  0.1404E+02
     11.797 -0.3314E+00  0.1402E+02
     11.866 -0.1602E+00  0.1400E+02
     11.934 -0.5281E-01  0.1400E+02
     12.002 -0.1278E-01  0.1400E+02
     12.071 -0.2344E-02  0.1400E+02
     12.139 -0.3305E-03  0.1400E+02
     12.207 -0.3615E-04  0.1400E+02
     12.276 -0.3084E-05  0.1400E+02
     12.344 -0.2059E-06  0.1400E+02
     12.412 -0.1078E-07  0.1400E+02
     12.481 -0.4438E-09  0.1400E+02
     12.549 -0.1437E-10  0.1400E+02
     12.618 -0.3703E-12  0.1400E+02
     12.686 -0.6496E-14  0.1400E+02
     12.754  0.0000E+00  0.1400E+02
     12.823  0.0000E+00  0.1400E+02
     12.891  0.0000E+00  0.1400E+02
     12.959  0.0000E+00  0.1400E+02
     13.028  0.0000E+00  0.1400E+02
     13.096  0.0000E+00  0.1400E+02
     13.164  0.0000E+00  0.1400E+02
     13.233  0.0000E+00  0.1400E+02
     13.301  0.0000E+00  0.1400E+02
     13.369  0.0000E+00  0.1400E+02
     13.438  0.0000E+00  0.1400E+02
     13.506  0.0000E+00  0.1400E+02
     13.575  0.0000E+00  0.1400E+02
     13.643  0.0000E+00  0.1400E+02
     13.711  0.0000E+00  0.1400E+02
     13.780  0.0000E+00  0.1400E+02
     13.848  0.0000E+00  0.1400E+02
     13.916  0.0000E+00  0.1400E+02
     13.985  0.0000E+00  0.1400E+02
     14.053  0.0000E+00  0.1400E+02
     14.121  0.0000E+00  0.1400E+02
     14.190  0.0000E+00  0.1400E+02
     14.258 -0.4053E-26  0.1400E+02
     14.327 -0.8429E-24  0.1400E+02
     14.395 -0.1391E-21  0.1400E+02
     14.463 -0.1813E-19  0.1400E+02
     14.532 -0.1866E-17  0.1400E+02
     14.600 -0.1517E-15  0.1400E+02
     14.668 -0.9738E-14  0.1400E+02
     14.737 -0.4776E-12  0.1400E+02
     14.805 -0.1899E-10  0.1400E+02
     14.873 -0.5940E-09  0.1400E+02
     14.942 -0.1461E-07  0.1400E+02
     15.010 -0.2818E-06  0.1400E+02
     15.078 -0.4257E-05  0.1400E+02
     15.147 -0.5019E-04  0.1400E+02
     15.215 -0.4599E-03  0.1400E+02
     15.284 -0.3252E-02  0.1400E+02
     15.352 -0.1757E-01  0.1400E+02
     15.420 -0.7119E-01  0.1399E+02
     15.489 -0.2085E+00  0.1398E+02
     15.557 -0.4020E+00  0.1395E+02
     15.625 -0.3261E+00  0.1393E+02
     15.694  0.7383E+00  0.1398E+02
     15.762  0.3296E+01  0.1421E+02
     15.830  0.6519E+01  0.1465E+02
     15.899  0.8281E+01  0.1522E+02
     15.967  0.7160E+01  0.1571E+02
     16.036  0.4077E+01  0.1599E+02
     16.104  0.1219E+01  0.1607E+02
     16.172 -0.1915E+00  0.1606E+02
     16.241 -0.4302E+00  0.1603E+02
     16.309 -0.2552E+00  0.1601E+02
     16.377 -0.9512E-01  0.1600E+02
     16.446 -0.2527E-01  0.1600E+02
     16.514 -0.5001E-02  0.1600E+02
     16.582 -0.7536E-03  0.1600E+02
     16.651 -0.8746E-04  0.1600E+02
     16.719 -0.7878E-05  0.1600E+02
     16.788 -0.5533E-06  0.1600E+02
     16.856 -0.3041E-07  0.1600E+02
     16.924 -0.1311E-08  0.1600E+02
     16.993 -0.4439E-10  0.1600E+02
     17.061 -0.1182E-11  0.1600E+02
     17.129 -0.2599E-13  0.1600E+02
     17.198  0.0000E+00  0.1600E+02
     17.266  0.0000E+00  0.1600E+02
     17.334  0.0000E+00  0.1600E+02
     17.403  0.0000E+00  0.1600E+02
     17.471  0.0000E+00  0.1600E+02
     17.539  0.0000E+00  0.1600E+02
     17.608  0.0000E+00  0.1600E+02
     17.676  0.0000E+00  0.1600E+02
     17.745  0.0000E+00  0.1600E+02
     17.813  0.0000E+00  0.1600E+02
     17.881  0.0000E+00  0.1600E+02
