  31  31   0   0
  0.1706118E+02  0.8087052E-09  0.8087052E-09  0.8087052E-09  0.5000000E-15
  1.000000000000000E-004
  CAR 
 unknown system                          
     13.36481968     -4.98616473  301      7.87224513      1.00000000
     -4.986  0.0000E+00  0.0000E+00
     -4.925  0.0000E+00  0.0000E+00
     -4.864  0.0000E+00  0.0000E+00
     -4.803  0.0000E+00  0.0000E+00
     -4.741  0.0000E+00  0.0000E+00
     -4.680  0.0000E+00  0.0000E+00
     -4.619 -0.7504E-27 -0.4590E-28
     -4.558 -0.9673E-25 -0.5963E-26
     -4.497 -0.1039E-22 -0.6414E-24
     -4.436 -0.9236E-21 -0.5714E-22
     -4.374 -0.6795E-19 -0.4214E-20
     -4.313 -0.4136E-17 -0.2572E-18
     -4.252 -0.2083E-15 -0.1300E-16
     -4.191 -0.8670E-14 -0.5433E-15
     -4.130 -0.2883E-12 -0.1818E-13
     -4.069 -0.8195E-11 -0.5194E-12
     -4.007 -0.1915E-09 -0.1223E-10
     -3.946 -0.3688E-08 -0.2378E-09
     -3.885 -0.5849E-07 -0.3816E-08
     -3.824 -0.7627E-06 -0.5047E-07
     -3.763 -0.8162E-05 -0.5497E-06
     -3.702 -0.7149E-04 -0.4923E-05
     -3.640 -0.5108E-03 -0.3617E-04
     -3.579 -0.2963E-02 -0.2174E-03
     -3.518 -0.1384E-01 -0.1064E-02
     -3.457 -0.5146E-01 -0.4212E-02
     -3.396 -0.1489E+00 -0.1332E-01
     -3.335 -0.3200E+00 -0.3290E-01
     -3.273 -0.4455E+00 -0.6015E-01
     -3.212 -0.1329E+00 -0.6828E-01
     -3.151  0.1190E+01  0.4512E-02
     -3.090  0.3717E+01  0.2319E+00
     -3.029  0.6625E+01  0.6371E+00
     -2.968  0.8292E+01  0.1144E+01
     -2.906  0.7606E+01  0.1610E+01
     -2.845  0.5039E+01  0.1918E+01
     -2.784  0.2175E+01  0.2051E+01
     -2.723  0.2956E+00  0.2069E+01
     -2.662 -0.3957E+00  0.2045E+01
     -2.601 -0.3976E+00  0.2020E+01
     -2.539 -0.2215E+00  0.2007E+01
     -2.478 -0.1043E+00  0.2001E+01
     -2.417 -0.9649E-01  0.1995E+01
     -2.356 -0.2109E+00  0.1982E+01
     -2.295 -0.4486E+00  0.1954E+01
     -2.234 -0.6696E+00  0.1913E+01
     -2.172 -0.4015E+00  0.1889E+01
     -2.111  0.1120E+01  0.1957E+01
     -2.050  0.4398E+01  0.2226E+01
     -1.989  0.8924E+01  0.2772E+01
     -1.928  0.1313E+02  0.3576E+01
     -1.866  0.1548E+02  0.4522E+01
     -1.805  0.1552E+02  0.5472E+01
     -1.744  0.1394E+02  0.6324E+01
     -1.683  0.1150E+02  0.7028E+01
     -1.622  0.8565E+01  0.7552E+01
     -1.561  0.5397E+01  0.7882E+01
     -1.499  0.2547E+01  0.8038E+01
     -1.438  0.5993E+00  0.8075E+01
     -1.377 -0.2957E+00  0.8056E+01
     -1.316 -0.4724E+00  0.8028E+01
     -1.255 -0.4110E+00  0.8002E+01
     -1.194 -0.4369E+00  0.7976E+01
     -1.132 -0.6036E+00  0.7939E+01
     -1.071 -0.6114E+00  0.7901E+01
     -1.010  0.2216E+00  0.7915E+01
     -0.949  0.2602E+01  0.8074E+01
     -0.888  0.6449E+01  0.8469E+01
     -0.827  0.1044E+02  0.9107E+01
     -0.765  0.1284E+02  0.9893E+01
     -0.704  0.1301E+02  0.1069E+02
     -0.643  0.1173E+02  0.1141E+02
     -0.582  0.1010E+02  0.1202E+02
     -0.521  0.8571E+01  0.1255E+02
     -0.460  0.7164E+01  0.1299E+02
     -0.398  0.5929E+01  0.1335E+02
     -0.337  0.4798E+01  0.1364E+02
     -0.276  0.3524E+01  0.1386E+02
     -0.215  0.2040E+01  0.1398E+02
     -0.154  0.6329E+00  0.1402E+02
     -0.093 -0.3903E+00  0.1400E+02
     -0.031 -0.9276E+00  0.1394E+02
      0.030 -0.8094E+00  0.1389E+02
      0.091  0.5058E+00  0.1392E+02
      0.152  0.3604E+01  0.1414E+02
      0.213  0.8266E+01  0.1465E+02
      0.274  0.1310E+02  0.1545E+02
      0.336  0.1635E+02  0.1645E+02
      0.397  0.1721E+02  0.1750E+02
      0.458  0.1623E+02  0.1850E+02
      0.519  0.1458E+02  0.1939E+02
      0.580  0.1297E+02  0.2018E+02
      0.641  0.1130E+02  0.2087E+02
      0.703  0.9081E+01  0.2143E+02
      0.764  0.6215E+01  0.2181E+02
      0.825  0.3254E+01  0.2201E+02
      0.886  0.9494E+00  0.2206E+02
      0.947 -0.4009E+00  0.2204E+02
      1.008 -0.1083E+01  0.2197E+02
      1.070 -0.1452E+01  0.2188E+02
      1.131 -0.1233E+01  0.2181E+02
      1.192  0.7394E+00  0.2185E+02
      1.253  0.5794E+01  0.2221E+02
      1.314  0.1385E+02  0.2306E+02
      1.376  0.2239E+02  0.2443E+02
      1.437  0.2746E+02  0.2611E+02
      1.498  0.2649E+02  0.2773E+02
      1.559  0.2043E+02  0.2898E+02
      1.620  0.1322E+02  0.2978E+02
      1.681  0.8989E+01  0.3033E+02
      1.743  0.9127E+01  0.3089E+02
      1.804  0.1168E+02  0.3161E+02
      1.865  0.1336E+02  0.3242E+02
      1.926  0.1222E+02  0.3317E+02
      1.987  0.8706E+01  0.3370E+02
      2.048  0.4628E+01  0.3399E+02
      2.110  0.1527E+01  0.3408E+02
      2.171 -0.1094E+00  0.3407E+02
      2.232 -0.6683E+00  0.3403E+02
      2.293 -0.7891E+00  0.3398E+02
      2.354 -0.8416E+00  0.3393E+02
      2.415 -0.6659E+00  0.3389E+02
      2.477  0.3977E+00  0.3392E+02
      2.538  0.3097E+01  0.3411E+02
      2.599  0.7541E+01  0.3457E+02
      2.660  0.1270E+02  0.3534E+02
      2.721  0.1675E+02  0.3637E+02
      2.782  0.1820E+02  0.3748E+02
      2.844  0.1666E+02  0.3850E+02
      2.905  0.1287E+02  0.3929E+02
      2.966  0.8175E+01  0.3979E+02
      3.027  0.3918E+01  0.4003E+02
      3.088  0.9529E+00  0.4009E+02
      3.149 -0.6481E+00  0.4005E+02
      3.211 -0.1397E+01  0.3996E+02
      3.272 -0.1707E+01  0.3986E+02
      3.333 -0.1168E+01  0.3979E+02
      3.394  0.1564E+01  0.3988E+02
      3.455  0.7804E+01  0.4036E+02
      3.516  0.1715E+02  0.4141E+02
      3.578  0.2663E+02  0.4304E+02
      3.639  0.3209E+02  0.4500E+02
      3.700  0.3116E+02  0.4691E+02
      3.761  0.2494E+02  0.4843E+02
      3.822  0.1712E+02  0.4948E+02
      3.883  0.1118E+02  0.5016E+02
      3.945  0.8330E+01  0.5067E+02
      4.006  0.7444E+01  0.5113E+02
      4.067  0.6610E+01  0.5153E+02
      4.128  0.4781E+01  0.5182E+02
      4.189  0.2244E+01  0.5196E+02
      4.250 -0.5362E-01  0.5196E+02
      4.312 -0.1227E+01  0.5188E+02
      4.373 -0.4679E+00  0.5185E+02
      4.434  0.3071E+01  0.5204E+02
      4.495  0.9693E+01  0.5264E+02
      4.556  0.1817E+02  0.5375E+02
      4.618  0.2572E+02  0.5532E+02
      4.679  0.2969E+02  0.5714E+02
      4.740  0.2964E+02  0.5895E+02
      4.801  0.2752E+02  0.6063E+02
      4.862  0.2560E+02  0.6220E+02
      4.923  0.2447E+02  0.6369E+02
      4.985  0.2331E+02  0.6512E+02
      5.046  0.2153E+02  0.6644E+02
      5.107  0.1919E+02  0.6761E+02
      5.168  0.1626E+02  0.6861E+02
      5.229  0.1241E+02  0.6936E+02
      5.290  0.7794E+01  0.6984E+02
      5.352  0.3401E+01  0.7005E+02
      5.413  0.3230E+00  0.7007E+02
      5.474 -0.9694E+00  0.7001E+02
      5.535 -0.5213E+00  0.6998E+02
      5.596  0.1503E+01  0.7007E+02
      5.657  0.4661E+01  0.7036E+02
      5.719  0.7847E+01  0.7084E+02
      5.780  0.9648E+01  0.7143E+02
      5.841  0.9367E+01  0.7200E+02
      5.902  0.7618E+01  0.7246E+02
      5.963  0.5874E+01  0.7282E+02
      6.024  0.5390E+01  0.7315E+02
      6.086  0.6332E+01  0.7354E+02
      6.147  0.7714E+01  0.7401E+02
      6.208  0.8323E+01  0.7452E+02
      6.269  0.7711E+01  0.7499E+02
      6.330  0.6195E+01  0.7537E+02
      6.391  0.4211E+01  0.7563E+02
      6.453  0.2252E+01  0.7577E+02
      6.514  0.1397E+01  0.7585E+02
      6.575  0.3140E+01  0.7605E+02
      6.636  0.8021E+01  0.7654E+02
      6.697  0.1443E+02  0.7742E+02
      6.758  0.1951E+02  0.7861E+02
      6.820  0.2182E+02  0.7995E+02
      6.881  0.2274E+02  0.8134E+02
      6.942  0.2460E+02  0.8284E+02
      7.003  0.2761E+02  0.8453E+02
      7.064  0.2925E+02  0.8632E+02
      7.125  0.2681E+02  0.8796E+02
      7.187  0.2008E+02  0.8919E+02
      7.248  0.1155E+02  0.8990E+02
      7.309  0.4369E+01  0.9016E+02
      7.370  0.1811E+00  0.9017E+02
      7.431 -0.1368E+01  0.9009E+02
      7.493 -0.1556E+01  0.8999E+02
      7.554 -0.1282E+01  0.8992E+02
      7.615 -0.5216E+00  0.8988E+02
      7.676  0.1359E+01  0.8997E+02
      7.737  0.4831E+01  0.9026E+02
      7.798  0.9641E+01  0.9085E+02
      7.860  0.1498E+02  0.9177E+02
      7.921  0.2017E+02  0.9300E+02
      7.982  0.2520E+02  0.9454E+02
      8.043  0.3041E+02  0.9640E+02
      8.104  0.3543E+02  0.9857E+02
      8.165  0.3840E+02  0.1009E+03
      8.227  0.3677E+02  0.1032E+03
      8.288  0.2987E+02  0.1050E+03
      8.349  0.2022E+02  0.1062E+03
      8.410  0.1173E+02  0.1070E+03
      8.471  0.6648E+01  0.1074E+03
      8.532  0.4437E+01  0.1076E+03
      8.594  0.3314E+01  0.1078E+03
      8.655  0.2065E+01  0.1080E+03
      8.716  0.5849E+00  0.1080E+03
      8.777 -0.6620E+00  0.1080E+03
      8.838 -0.1105E+01  0.1079E+03
      8.899 -0.2744E-01  0.1079E+03
      8.961  0.3313E+01  0.1081E+03
      9.022  0.8874E+01  0.1086E+03
      9.083  0.1513E+02  0.1096E+03
      9.144  0.1986E+02  0.1108E+03
      9.205  0.2209E+02  0.1121E+03
      9.266  0.2286E+02  0.1135E+03
      9.328  0.2361E+02  0.1150E+03
      9.389  0.2412E+02  0.1164E+03
      9.450  0.2269E+02  0.1178E+03
      9.511  0.1823E+02  0.1189E+03
      9.572  0.1162E+02  0.1197E+03
      9.633  0.4939E+01  0.1200E+03
      9.695  0.1505E+00  0.1200E+03
      9.756 -0.1440E+01  0.1199E+03
      9.817  0.1091E+01  0.1199E+03
      9.878  0.8044E+01  0.1204E+03
      9.939  0.1805E+02  0.1215E+03
     10.000  0.2785E+02  0.1232E+03
     10.062  0.3394E+02  0.1253E+03
     10.123  0.3466E+02  0.1274E+03
     10.184  0.3042E+02  0.1293E+03
     10.245  0.2277E+02  0.1307E+03
     10.306  0.1413E+02  0.1316E+03
     10.367  0.7654E+01  0.1320E+03
     10.429  0.5895E+01  0.1324E+03
     10.490  0.8895E+01  0.1329E+03
     10.551  0.1392E+02  0.1338E+03
     10.612  0.1744E+02  0.1348E+03
     10.673  0.1758E+02  0.1359E+03
     10.735  0.1496E+02  0.1368E+03
     10.796  0.1169E+02  0.1376E+03
     10.857  0.9683E+01  0.1381E+03
     10.918  0.9428E+01  0.1387E+03
     10.979  0.1005E+02  0.1393E+03
     11.040  0.1047E+02  0.1400E+03
     11.102  0.1049E+02  0.1406E+03
     11.163  0.1066E+02  0.1413E+03
     11.224  0.1113E+02  0.1420E+03
     11.285  0.1120E+02  0.1426E+03
     11.346  0.9968E+01  0.1432E+03
     11.407  0.7367E+01  0.1437E+03
     11.469  0.4241E+01  0.1440E+03
     11.530  0.1649E+01  0.1441E+03
     11.591  0.1445E+00  0.1441E+03
     11.652 -0.3826E+00  0.1440E+03
     11.713 -0.3726E+00  0.1440E+03
     11.774 -0.2143E+00  0.1440E+03
     11.836 -0.9025E-01  0.1440E+03
     11.897 -0.2954E-01  0.1440E+03
     11.958 -0.7698E-02  0.1440E+03
     12.019 -0.1617E-02  0.1440E+03
     12.080 -0.2759E-03  0.1440E+03
     12.141 -0.3839E-04  0.1440E+03
     12.203 -0.4372E-05  0.1440E+03
     12.264 -0.4085E-06  0.1440E+03
     12.325 -0.3136E-07  0.1440E+03
     12.386 -0.1982E-08  0.1440E+03
     12.447 -0.1032E-09  0.1440E+03
     12.508 -0.4429E-11  0.1440E+03
     12.570 -0.1561E-12  0.1440E+03
     12.631 -0.3630E-14  0.1440E+03
     12.692  0.0000E+00  0.1440E+03
     12.753  0.0000E+00  0.1440E+03
     12.814  0.0000E+00  0.1440E+03
     12.875  0.0000E+00  0.1440E+03
     12.937  0.0000E+00  0.1440E+03
     12.998  0.0000E+00  0.1440E+03
     13.059  0.0000E+00  0.1440E+03
     13.120  0.0000E+00  0.1440E+03
     13.181  0.0000E+00  0.1440E+03
     13.242  0.0000E+00  0.1440E+03
     13.304  0.0000E+00  0.1440E+03
     13.365  0.0000E+00  0.1440E+03
