   31   31    1    1
  0.1706118E+02  0.8087052E-09  0.8087052E-09  0.8087052E-09  0.5000000E-15
  1.000000000000000E-004
  CAR 
 unknown system                          
   92    2   72
 
  0.2500000E+00  0.2500000E+00  0.2500000E+00  0.5000000E+00
   1       -2.983203
   2       -1.960528
   3       -1.879015
   4       -1.641838
   5       -0.812182
   6       -0.760987
   7       -0.354072
   8        0.257082
   9        0.321439
  10        0.532682
  11        0.615963
  12        1.344490
  13        1.363430
  14        1.405766
  15        1.539753
  16        1.813766
  17        1.940395
  18        2.700723
  19        2.708424
  20        2.904269
  21        3.530230
  22        3.591478
  23        3.628815
  24        3.677270
  25        3.736214
  26        4.050696
  27        4.530656
  28        4.557886
  29        4.644881
  30        4.807326
  31        4.864738
  32        4.870509
  33        4.929232
  34        5.110551
  35        5.206214
  36        5.726590
  37        5.892840
  38        6.355794
  39        6.709827
  40        6.775425
  41        6.786434
  42        6.944455
  43        6.989165
  44        7.094117
  45        7.149863
  46        7.789291
  47        7.887506
  48        8.006130
  49        8.036344
  50        8.162236
  51        8.198669
  52        8.207352
  53        8.373584
  54        8.536485
  55        9.056631
  56        9.137000
  57        9.187858
  58        9.354248
  59        9.371723
  60        9.512889
  61        9.970514
  62        9.984794
  63       10.063975
  64       10.155628
  65       10.203285
  66       10.210973
  67       10.517879
  68       10.648530
  69       10.776396
  70       10.934043
  71       11.078220
  72       11.221971
 
 -0.2500000E+00  0.2500000E+00  0.2500000E+00  0.5000000E+00
   1       -2.986165
   2       -1.950838
   3       -1.815750
   4       -1.722247
   5       -0.825640
   6       -0.609736
   7       -0.548608
   8        0.261407
   9        0.398332
  10        0.441555
  11        0.699111
  12        1.393102
  13        1.428029
  14        1.492974
  15        1.493041
  16        1.768360
  17        1.842521
  18        2.621321
  19        2.773103
  20        2.839364
  21        3.537603
  22        3.587994
  23        3.634092
  24        3.681104
  25        3.811468
  26        3.963493
  27        4.597623
  28        4.651299
  29        4.678092
  30        4.698741
  31        4.716464
  32        4.949422
  33        4.973280
  34        5.059514
  35        5.174772
  36        5.746125
  37        6.117170
  38        6.177931
  39        6.705985
  40        6.746719
  41        6.917297
  42        7.023723
  43        7.033283
  44        7.070322
  45        7.141436
  46        7.837735
  47        7.956847
  48        7.994522
  49        8.067047
  50        8.149093
  51        8.171882
  52        8.187861
  53        8.216878
  54        8.263876
  55        9.095008
  56        9.146743
  57        9.273037
  58        9.378043
  59        9.407893
  60        9.487616
  61        9.968265
  62        9.979376
  63       10.042219
  64       10.051510
  65       10.142228
  66       10.231130
  67       10.555446
  68       10.565606
  69       10.681164
  70       10.977393
  71       11.255607
  72       11.364820
