       N       E                     dE             d eps       ncg     rms          rms(c)
RMM:   1     0.224493262571E+03    0.22449E+03   -0.15460E+04   144   0.531E+02
RMM:   2    -0.393074653814E+02   -0.26380E+03   -0.25402E+03   144   0.109E+02
RMM:   3    -0.943973498278E+02   -0.55090E+02   -0.53399E+02   144   0.355E+01
RMM:   4    -0.106749921506E+03   -0.12353E+02   -0.10865E+02   144   0.196E+01
RMM:   5    -0.111116686798E+03   -0.43668E+01   -0.32840E+01   144   0.978E+00
RMM:   6    -0.112556017910E+03   -0.14393E+01   -0.10612E+01   144   0.550E+00
RMM:   7    -0.112993907043E+03   -0.43789E+00   -0.35793E+00   144   0.303E+00
RMM:   8    -0.113147834016E+03   -0.15393E+00   -0.13040E+00   144   0.179E+00
RMM:   9    -0.113231320585E+03   -0.83487E-01   -0.76376E-01   384   0.106E+00
RMM:  10    -0.113242280746E+03   -0.10960E-01   -0.67231E-02   363   0.279E-01
RMM:  11    -0.113242759209E+03   -0.47846E-03   -0.35716E-03   286   0.651E-02
RMM:  12    -0.113242778555E+03   -0.19347E-04   -0.17614E-04   217   0.221E-02    0.547E+00
RMM:  13    -0.112416238469E+03    0.82654E+00   -0.10734E+00   303   0.134E+00    0.330E+00
RMM:  14    -0.112177333092E+03    0.23891E+00   -0.16810E-01   328   0.760E-01    0.156E+00
RMM:  15    -0.112110874447E+03    0.66459E-01   -0.52382E-02   327   0.492E-01    0.194E-01
RMM:  16    -0.112108887134E+03    0.19873E-02   -0.37809E-03   339   0.124E-01    0.542E-02
RMM:  17    -0.112108827812E+03    0.59321E-04   -0.46264E-04   298   0.468E-02
   1 F= -.11210883E+03 E0= -.11210702E+03  d E =-.543148E-02
