 vasp.5.2.2 15Apr09 complex 
 executed on             LinuxIFC date 2017.03.17  11:38:50
 running on   12 nodes
 distr:  one band on    1 nodes,   12 groups


--------------------------------------------------------------------------------------------------------


 INCAR:
 POTCAR:   PAW_PBE Al 04Jan2001                   
 POTCAR:   PAW_PBE Mg 05Jan2001                   
 POTCAR:   PAW_PBE Al 04Jan2001                   
   VRHFIN =Al: s2p1                                                             
   LEXCH  = PE                                                                  
   EATOM  =    53.5387 eV,    3.9350 Ry                                         
                                                                                
   TITEL  = PAW_PBE Al 04Jan2001                                                
   LULTRA =        F    use ultrasoft PP ?                                      
   IUNSCR =        1    unscreen: 0-lin 1-nonlin 2-no                           
   RPACOR =    1.500    partial core radius                                     
   POMASS =   26.982; ZVAL   =    3.000    mass and valenz                      
   RCORE  =    1.900    outmost cutoff radius                                   
   RWIGS  =    2.650; RWIGS  =    1.402    wigner-seitz radius (au A)           
   ENMAX  =  240.300; ENMIN  =  180.225 eV                                      
   ICORE  =        2    local potential                                         
   LCOR   =        T    correct aug charges                                     
   LPAW   =        T    paw PP                                                  
   EAUG   =  291.052                                                            
   DEXC   =    -.041                                                            
   RMAX   =    2.974    core radius for proj-oper                               
   RAUG   =    1.300    factor for augmentation sphere                          
   RDEP   =    1.966    radius for radial grids                                 
   QCUT   =   -4.203; QGAM   =    8.405    optimization parameters              
                                                                                
   Description                                                                  
     l     E      TYP  RCUT    TYP  RCUT                                        
     0   .000     23  1.900                                                     
     0   .000     23  1.900                                                     
     1   .000     23  1.900                                                     
     1  1.000     23  1.900                                                     
     2   .000      7  1.900                                                     
  local pseudopotential read in
  partial core-charges read in
  atomic valenz-charges read in
  non local Contribution for L=           0  read in
    real space projection operators read in
  non local Contribution for L=           0  read in
    real space projection operators read in
  non local Contribution for L=           1  read in
    real space projection operators read in
  non local Contribution for L=           1  read in
    real space projection operators read in
    PAW grid and wavefunctions read in
 
   number of l-projection  operators is LMAX  =           4
   number of lm-projection operators is LMMAX =           8
 
 POTCAR:   PAW_PBE Mg 05Jan2001                   
   VRHFIN =Mg: s2p0                                                             
   LEXCH  = PE                                                                  
   EATOM  =    23.0029 eV,    1.6907 Ry                                         
                                                                                
   TITEL  = PAW_PBE Mg 05Jan2001                                                
   LULTRA =        F    use ultrasoft PP ?                                      
   IUNSCR =        1    unscreen: 0-lin 1-nonlin 2-no                           
   RPACOR =    2.000    partial core radius                                     
   POMASS =   24.305; ZVAL   =    2.000    mass and valenz                      
   RCORE  =    2.000    outmost cutoff radius                                   
   RWIGS  =    2.880; RWIGS  =    1.524    wigner-seitz radius (au A)           
   ENMAX  =  210.012; ENMIN  =  157.509 eV                                      
   ICORE  =        2    local potential                                         
   LCOR   =        T    correct aug charges                                     
   LPAW   =        T    paw PP                                                  
   EAUG   =  274.554                                                            
   DEXC   =    -.136                                                            
   RMAX   =    3.182    core radius for proj-oper                               
   RAUG   =    1.300    factor for augmentation sphere                          
   RDEP   =    2.025    radius for radial grids                                 
   QCUT   =   -3.929; QGAM   =    7.858    optimization parameters              
                                                                                
   Description                                                                  
     l     E      TYP  RCUT    TYP  RCUT                                        
     0   .000     23  2.000                                                     
     0  2.000     23  2.000                                                     
     1   .000     23  2.000                                                     
     1  2.000     23  2.000                                                     
     2   .000     23  2.000                                                     
  local pseudopotential read in
  partial core-charges read in
  atomic valenz-charges read in
  non local Contribution for L=           0  read in
    real space projection operators read in
  non local Contribution for L=           0  read in
    real space projection operators read in
  non local Contribution for L=           1  read in
    real space projection operators read in
  non local Contribution for L=           1  read in
    real space projection operators read in
    PAW grid and wavefunctions read in
 
   number of l-projection  operators is LMAX  =           4
   number of lm-projection operators is LMMAX =           8
 

 ----------------------------------------------------------------------------- 
|                                                                             |
|  ADVICE TO THIS USER RUNNING 'VASP/VAMP'   (HEAR YOUR MASTER'S VOICE ...):  |
|                                                                             |
|      You have a (more or less) 'large supercell' and for larger cells       |
|      it might be more efficient to use real space projection operators      |
|      So try LREAL= Auto  in the INCAR   file.                               |
|      Mind: If you want to do a very accurate calculations keep the          |
|      reciprocal projection scheme          (i.e. LREAL=.FALSE.)             |
|                                                                             |
 ----------------------------------------------------------------------------- 

 PAW_PBE Al 04Jan2001                   :
 energy of atom  1       EATOM=  -53.5387
 kinetic energy error for atom=    0.0011 (will be added to EATOM!!)
 PAW_PBE Mg 05Jan2001                   :
 energy of atom  2       EATOM=  -23.0029
 kinetic energy error for atom=    0.0002 (will be added to EATOM!!)
 
 
 POSCAR: Mg1 Al30                                
  positions in direct lattice
  velocities in cartesian coordinates
 exchange correlation table for  LEXCH =        8
   RHO(1)=    0.500       N(1)  =     2000
   RHO(2)=  100.500       N(2)  =     4000

 VTST: version 2.03d, (02/18/09)

 CHAIN: initializing optimizer
 
 OPT: Using VASP Dynamics algorithm
 CHAIN: Read ICHAIN            0
 


--------------------------------------------------------------------------------------------------------


 ion  position               nearest neighbor table
   1  0.001  0.000  0.001-   6 2.78  17 2.78   2 2.81  14 2.83  27 2.83  19 2.83   7 2.83  21 2.88
                             4 2.88  10 2.88  11 2.88   3 2.88
   2  0.247  0.000  0.247-   1 2.81   8 2.83  15 2.83  18 2.83  26 2.83  11 2.85   4 2.85   3 2.85
                            10 2.85  20 2.93  16 2.94   5 2.94
   3  0.249  0.256  0.005-   4 2.80  12 2.82   9 2.82  17 2.84   2 2.85   8 2.85  25 2.87   1 2.88
                            19 2.88   5 2.90  23 2.92
   4  0.005  0.256  0.249-   3 2.80  24 2.82   9 2.82   6 2.84   2 2.85  18 2.85  13 2.87   1 2.88
                             7 2.88  16 2.90  22 2.92
   5  0.500  0.000  0.986-  17 2.71  15 2.75   8 2.75  21 2.78  23 2.84  30 2.84  14 2.86   7 2.86
                             3 2.90  10 2.90   2 2.94   6 3.01
   6  0.764  0.000  0.250-  16 2.71  15 2.75   8 2.75   1 2.78   4 2.84  11 2.84  14 2.86   7 2.86
                            22 2.90  29 2.90  20 2.94   5 3.01
   7  0.754  0.247  0.996-   8 2.77  19 2.78   1 2.83  21 2.83   9 2.85  28 2.85   6 2.86   5 2.86
                             4 2.88  23 2.88  13 2.90  12 2.90
   8  0.511  0.228  0.239-  31 2.70   6 2.75   5 2.75   7 2.77  20 2.83   2 2.83  22 2.85   3 2.85
                            13 2.91  12 2.91  18 3.12
   9  1.000  0.500  1.000-   3 2.82   4 2.82  10 2.82  11 2.82   7 2.85  19 2.85  14 2.85  27 2.85
                            28 2.86  13 2.88  25 2.88
  10  0.249  0.744  0.005-  11 2.80  12 2.82   9 2.82  17 2.84   2 2.85  15 2.85  25 2.87   1 2.88
                            27 2.88   5 2.90  30 2.92
  11  0.005  0.744  0.249-  10 2.80  24 2.82   9 2.82   6 2.84   2 2.85  26 2.85  13 2.87   1 2.88
                            14 2.88  16 2.90  29 2.92
  12  0.499  0.500  0.003-   3 2.82  10 2.82  13 2.84  23 2.87  30 2.87  25 2.88  28 2.88   7 2.90
                            14 2.90   8 2.91  15 2.91  31 3.17
  13  0.747  0.500  0.251-  22 2.82  29 2.82  12 2.84  11 2.87   4 2.87  24 2.88   9 2.88   7 2.90
                            14 2.90  15 2.91   8 2.91  31 3.17
  14  0.754  0.753  0.996-  15 2.77  27 2.78   1 2.83  21 2.83   9 2.85  28 2.85   6 2.86   5 2.86
                            11 2.88  30 2.88  13 2.90  12 2.90
  15  0.511  0.772  0.239-  31 2.70   6 2.75   5 2.75  14 2.77  20 2.83   2 2.83  29 2.85  10 2.85
                            13 2.91  12 2.91  26 3.12
  16  0.986  0.000  0.500-   6 2.71  18 2.75  26 2.75  21 2.78  22 2.84  29 2.84  27 2.86  19 2.86
                            11 2.90   4 2.90   2 2.94  17 3.01
  17  0.250  0.000  0.764-   5 2.71  18 2.75  26 2.75   1 2.78   3 2.84  10 2.84  27 2.86  19 2.86
                            23 2.90  30 2.90  20 2.94  16 3.01
  18  0.239  0.228  0.511-  31 2.70  17 2.75  16 2.75  19 2.77  20 2.83   2 2.83  23 2.85   4 2.85
                            25 2.91  24 2.91   8 3.12
  19  0.996  0.247  0.754-  18 2.77   7 2.78   1 2.83  21 2.83   9 2.85  28 2.85  17 2.86  16 2.86
                             3 2.88  22 2.88  25 2.90  24 2.90
  20  0.503  0.000  0.503-  21 2.81  15 2.83  18 2.83   8 2.83  26 2.83  23 2.85  22 2.85  29 2.85
                            30 2.85   2 2.93  17 2.94   6 2.94
  21  0.749  0.000  0.749-   5 2.78  16 2.78  20 2.81  14 2.83  27 2.83   7 2.83  19 2.83   1 2.88
                            22 2.88  29 2.88  23 2.88  30 2.88
  22  0.745  0.256  0.501-  23 2.80  13 2.82  28 2.82  16 2.84  20 2.85   8 2.85  24 2.87  21 2.88
                            19 2.88   6 2.90   4 2.92
  23  0.501  0.256  0.745-  22 2.80  25 2.82  28 2.82   5 2.84  20 2.85  18 2.85  12 2.87  21 2.88
                             7 2.88  17 2.90   3 2.92
  24  0.003  0.500  0.499-   4 2.82  11 2.82  25 2.84  22 2.87  29 2.87  13 2.88  28 2.88  19 2.90
                            27 2.90  26 2.91  18 2.91  31 3.17
  25  0.251  0.500  0.747-  23 2.82  30 2.82  24 2.84  10 2.87   3 2.87  12 2.88   9 2.88  19 2.90
                            27 2.90  18 2.91  26 2.91  31 3.17
  26  0.239  0.772  0.511-  31 2.70  17 2.75  16 2.75  27 2.77  20 2.83   2 2.83  30 2.85  11 2.85
                            25 2.91  24 2.91  15 3.12
  27  0.996  0.753  0.754-  26 2.77  14 2.78   1 2.83  21 2.83   9 2.85  28 2.85  17 2.86  16 2.86
                            10 2.88  29 2.88  25 2.90  24 2.90
  28  0.750  0.500  0.750-  22 2.82  23 2.82  29 2.82  30 2.82   7 2.85  19 2.85  14 2.85  27 2.85
                             9 2.86  24 2.88  12 2.88
  29  0.745  0.744  0.501-  30 2.80  13 2.82  28 2.82  16 2.84  20 2.85  15 2.85  24 2.87  21 2.88
                            27 2.88   6 2.90  11 2.92
  30  0.501  0.744  0.745-  29 2.80  25 2.82  28 2.82   5 2.84  20 2.85  26 2.85  12 2.87  21 2.88
                            14 2.88  17 2.90  10 2.92
  31  0.375  0.500  0.375-   8 2.70  15 2.70  18 2.70  26 2.70  25 3.17  13 3.17  12 3.17  24 3.17

 
  LATTYP: Found a simple cubic cell.
 ALAT       =     8.0870520000
  
  Lattice vectors:
  
 A1 = (   8.0870520000,   0.0000000000,   0.0000000000)
 A2 = (   0.0000000000,   8.0870520000,   0.0000000000)
 A3 = (   0.0000000000,   0.0000000000,   8.0870520000)
 Subroutine PRICEL returns:
 Original cell was already a primitive cell.
 

Analysis of symmetry for initial positions (statically):

 Routine SETGRP: Setting up the symmetry group for a 
 simple cubic supercell.


 Subroutine GETGRP returns: Found  8 space group operations
 (whereof  4 operations were pure point group operations)
 out of a pool of 48 trial point group operations.


The static configuration has the point symmetry C_2v.
 The point group associated with its full space group is D_2h.

Analysis of symmetry for dynamics (positions and initial velocities):

 Subroutine DYNSYM returns: Found  8 space group operations
 (whereof  4 operations were pure point group operations)
 out of a pool of  8 trial space group operations
 (whereof  4 operations were pure point group operations)
 and found also     1 'primitive' translations


The dynamic configuration has the point symmetry C_2v.
 The point group associated with its full space group is D_2h.
 
 
 KPOINTS: Automatic kpoint scheme                 

Automatic generation of k-mesh.
 
 Subroutine IBZKPT returns following result:
 ===========================================
 
 Found      2 irreducible k-points:
 
 Following reciprocal coordinates:
            Coordinates               Weight
  0.250000  0.250000  0.250000      4.000000
 -0.250000  0.250000  0.250000      4.000000
 
 Following cartesian coordinates:
            Coordinates               Weight
  0.030914  0.030914  0.030914      4.000000
 -0.030914  0.030914  0.030914      4.000000
 


--------------------------------------------------------------------------------------------------------




 Dimension of arrays:
   k-points           NKPTS =      2   k-points in BZ     NKDIM =      2   number of bands    NBANDS=     72
   number of dos      NEDOS =    301   number of ions     NIONS =     31
   non local maximal  LDIM  =      4   non local SUM 2l+1 LMDIM =      8
   total plane-waves  NPLWV = 110592
   max r-space proj   IRMAX =      1   max aug-charges    IRDMAX=   9081
   dimension x,y,z NGX =    48 NGY =   48 NGZ =   48
   dimension x,y,z NGXF=    96 NGYF=   96 NGZF=   96
   support grid    NGXF=    96 NGYF=   96 NGZF=   96
   ions per type =              30   1
 NGX,Y,Z   is equivalent  to a cutoff of   9.87,  9.87,  9.87 a.u.
 NGXF,Y,Z  is equivalent  to a cutoff of  19.73, 19.73, 19.73 a.u.


 I would recommend the setting:
   dimension x,y,z NGX =    46 NGY =   46 NGZ =   46
 SYSTEM =  unknown system                          
 POSCAR =  Mg1 Al30                                

 Startparameter for this run:
   NWRITE =      2    write-flag & timer
   PREC   = accura    medium, high low
   ISTART =      0    job   : 0-new  1-cont  2-samecut
   ICHARG =      2    charge: 1-file 2-atom 10-const
   ISPIN  =      1    spin polarized calculation?
   LNONCOLLINEAR =      F non collinear calculations
   LSORBIT =      F    spin-orbit coupling
   INIWAV =      1    electr: 0-lowe 1-rand  2-diag
   LASPH  =      F    aspherical Exc in radial PAW
   METAGGA=      F    non-selfconsistent MetaGGA calc.

 Electronic Relaxation 1
   ENCUT  =  300.0 eV  22.05 Ry    4.70 a.u.  11.42 11.42 11.42*2*pi/ulx,y,z
   ENINI  =  300.0     initial cutoff
   ENAUG  =  291.1 eV  augmentation charge cutoff
   NELM   =     60;   NELMIN=  2; NELMDL=-12     # of ELM steps 
   EDIFF  = 0.1E-03   stopping-criterion for ELM
   LREAL  =      F    real-space projection
   LCOMPAT=      F    compatible to vasp.4.4
   LREAL_COMPAT= F    compatible to vasp.4.5.1-3
   GGA_COMPAT  = T    GGA compatible to vasp.4.4-vasp.4.6
   LMAXPAW     = -100 max onsite density
   LMAXMIX     =    2 max onsite mixed and CHGCAR
   VOSKOWN=      0    Vosko Wilk Nusair interpolation
   ROPT   =    0.00000   0.00000
 Ionic relaxation
   EDIFFG = 0.5E-01   stopping-criterion for IOM
   NSW    =      0    number of steps for IOM
   NBLOCK =      1;   KBLOCK =      1    inner block; outer block 
   IBRION =     -1    ionic relax: 0-MD 1-quasi-New 2-CG
   NFREE  =      0    steps in history (QN), initial steepest desc. (CG)
   ISIF   =      2    stress and relaxation
   IWAVPR =     10    prediction:  0-non 1-charg 2-wave 3-comb
   ISYM   =      2    0-nonsym 1-usesym 2-fastsym
   LCORR  =      T    Harris-Foulkes like correction to forces

   POTIM  = 0.5000    time-step for ionic-motion
   TEIN   =    0.0    initial temperature
   TEBEG  =    0.0;   TEEND  =   0.0 temperature during run
   SMASS  =  -3.00    Nose mass-parameter (am)
   estimated Nose-frequenzy (Omega)   =  0.10E-29 period in steps =****** mass=  -0.149E-26a.u.
   NPACO  =    256;   APACO  = 16.0  distance and # of slots for P.C.
   PSTRESS=    0.0 pullay stress

  Mass of Ions in am
   POMASS =  26.98 24.30
  Ionic Valenz
   ZVAL   =   3.00  2.00
  Atomic Wigner-Seitz radii
   RWIGS  =  -1.00 -1.00
   NELECT =      92.0000    total number of electrons
   NUPDOWN=      -1.0000    fix difference up-down

 DOS related values:
   EMIN   =  10.00;   EMAX   =-10.00  energy-range for DOS
   EFERMI =   0.00
   ISMEAR =     1;   SIGMA  =   0.20  broadening in eV -4-tet -1-fermi 0-gaus

 Electronic relaxation 2 (details)
   IALGO  =     48    algorithm
   LDIAG  =      T    sub-space diagonalisation
   IMIX   =      4    mixing-type and parameters
     AMIX     =   0.40;   BMIX     =  1.00
     AMIX_MAG =   1.60;   BMIX_MAG =  1.00
     AMIN     =   0.10
     WC   =   100.;   INIMIX=   1;  MIXPRE=   1

 Intra band minimization:
   WEIMIN = 0.0000     energy-eigenvalue tresh-hold
   EBREAK =  0.40E-06  absolut break condition
   DEPER  =   0.30     relativ break condition  

   TIME   =   0.40     timestep for ELM

  volume/ion in A,a.u.               =      17.06       115.13
  Fermi-wavevector in a.u.,A,eV,Ry     =   0.913862  1.726948 11.362816  0.835143
  Thomas-Fermi vector in A             =   2.038422
 
 Write flags
   LWAVE  =      F    write WAVECAR
   LCHARG =      F    write CHGCAR
   LVTOT  =      F    write LOCPOT, local potential
   LELF   =      F    write electronic localiz. function (ELF)
   LORBIT =      0    0 simple, 1 ext, 2 COOP (PROOUT)


 Dipole corrections
   LMONO  =      F    monopole corrections only (constant potential shift)
   LDIPOL =      F    correct potential (dipole corrections)
   IDIPOL =      0    1-x, 2-y, 3-z, 4-all directions 
   EPSILON=  1.0000000 bulk dielectric constant

 Exchange correlation treatment:
   GGA     =    --    GGA type
   LEXCH   =     8    internal setting for exchange type
   VOSKOWN=      0    Vosko Wilk Nusair interpolation
   LHFCALC =     F    Hartree Fock is set to
   LHFONE  =     F    Hartree Fock one center treatment
   AEXX    =    0.0000 exact exchange contribution

 Linear response parameters
   LEPSILON=     F    determine dielectric tensor
   LRPA    =     F    only Hartree local field effects (RPA)
   LNABLA  =     F    use nabla operator in PAW spheres
   LVEL    =     F    velocity operator in full k-point grid
   LINTERFAST=   F  fast interpolation
   KINTER  =     0    interpolate to denser k-point grid
   CSHIFT  =0.1000    complex shift for real part using Kramers Kronig
   OMEGAMAX=  -1.0    maximum frequency

 Orbital magnetization related:
   ORBITALMAG=     F  switch on orbital magnetization
   LCHIMAG   =     F  perturbation theory with respect to B field



--------------------------------------------------------------------------------------------------------


 Static calculation
 charge density and potential will be updated during run
 non-spin polarized calculation
 RMM-DIIS sequential band-by-band
 perform sub-space diagonalisation
    before iterative eigenvector-optimisation
 modified Broyden-mixing scheme, WC =      100.0
 initial mixing is a Kerker type mixing with AMIX =  0.4000 and BMIX =      1.0000
 Hartree-type preconditioning will be used
 using additional bands           26
 reciprocal scheme for non local part
 use partial core corrections
 calculate Harris-corrections to forces 
   (improved forces if not selfconsistent)
 use gradient corrections 
 use of overlap-Matrix (Vanderbilt PP)
 Methfessel and Paxton  Order N= 1 SIGMA  =   0.20


--------------------------------------------------------------------------------------------------------


  energy-cutoff  :      300.00
  volume of cell :      528.90
      direct lattice vectors                 reciprocal lattice vectors
     8.087052000  0.000000000  0.000000000     0.123654454  0.000000000  0.000000000
     0.000000000  8.087052000  0.000000000     0.000000000  0.123654454  0.000000000
     0.000000000  0.000000000  8.087052000     0.000000000  0.000000000  0.123654454

  length of vectors
     8.087052000  8.087052000  8.087052000     0.123654454  0.123654454  0.123654454


 
 k-points in units of 2pi/SCALE and weight: Automatic kpoint scheme                 
   0.03091361  0.03091361  0.03091361       0.500
  -0.03091361  0.03091361  0.03091361       0.500
 
 k-points in reciprocal lattice and weights: Automatic kpoint scheme                 
   0.25000000  0.25000000  0.25000000       0.500
  -0.25000000  0.25000000  0.25000000       0.500
 
 position of ions in fractional coordinates (direct lattice) 
   0.00090600  0.00000000  0.00090600
   0.24684900  0.00000000  0.24684900
   0.24947500  0.25556300  0.00486800
   0.00486800  0.25556300  0.24947500
   0.50022800  0.00000000  0.98624300
   0.76375700  0.00000000  0.24977300
   0.75355500  0.24728000  0.99644600
   0.51143300  0.22809400  0.23856800
   0.99998300  0.50000000  0.99998300
   0.24947500  0.74443700  0.00486800
   0.00486800  0.74443700  0.24947500
   0.49876600  0.50000000  0.00318600
   0.74681300  0.50000000  0.25123200
   0.75355500  0.75272100  0.99644600
   0.51143300  0.77190600  0.23856800
   0.98624300  0.00000000  0.50022800
   0.24977300  0.00000000  0.76375700
   0.23856800  0.22809400  0.51143300
   0.99644600  0.24728000  0.75355500
   0.50315100  0.00000000  0.50315100
   0.74909400  0.00000000  0.74909400
   0.74513100  0.25556300  0.50052600
   0.50052600  0.25556300  0.74513100
   0.00318600  0.50000000  0.49876600
   0.25123200  0.50000000  0.74681300
   0.23856800  0.77190600  0.51143300
   0.99644600  0.75272100  0.75355500
   0.75001800  0.50000000  0.75001800
   0.74513100  0.74443700  0.50052600
   0.50052600  0.74443700  0.74513100
   0.37500000  0.50000000  0.37500000
 
 position of ions in cartesian coordinates  (Angst):
   0.00732687  0.00000000  0.00732687
   1.99628070  0.00000000  1.99628070
   2.01751730  2.06675127  0.03936777
   0.03936777  2.06675127  2.01751730
   4.04536985  0.00000000  7.97579843
   6.17654257  0.00000000  2.01992724
   6.09403847  1.99976622  8.05831062
   4.13598527  1.84460804  1.92931182
   8.08691452  4.04352600  8.08691452
   2.01751730  6.02030073  0.03936777
   0.03936777  6.02030073  2.01751730
   4.03354658  4.04352600  0.02576535
   6.03951557  4.04352600  2.03172625
   6.09403847  6.08729387  8.05831062
   4.13598527  6.24244396  1.92931182
   7.97579843  0.00000000  4.04536985
   2.01992724  0.00000000  6.17654257
   1.92931182  1.84460804  4.13598527
   8.05831062  1.99976622  6.09403847
   4.06900830  0.00000000  4.06900830
   6.05796213  0.00000000  6.05796213
   6.02591314  2.06675127  4.04777979
   4.04777979  2.06675127  6.02591314
   0.02576535  4.04352600  4.03354658
   2.03172625  4.04352600  6.03951557
   1.92931182  6.24244396  4.13598527
   8.05831062  6.08729387  6.09403847
   6.06543457  4.04352600  6.06543457
   6.02591314  6.02030073  4.04777979
   4.04777979  6.02030073  6.02591314
   3.03264450  4.04352600  3.03264450
 


--------------------------------------------------------------------------------------------------------


 k-point  1 :  0.25000.25000.2500  plane waves:    6238
 k-point  2 :  -.25000.25000.2500  plane waves:    6238

 maximum and minimum number of plane-waves per node :    6238   6238

 maximum number of plane-waves:    6238
 maximal index in each direction: 
   IXMAX= 11   IYMAX= 11   IZMAX= 11
   IXMIN=-11   IYMIN=-11   IZMIN=-11

 NGX is ok and might be reduce to  46
 NGY is ok and might be reduce to  46
 NGZ is ok and might be reduce to  46

 serial   3D FFT for wavefunctions
 parallel 3D FFT for charge:
    minimum data exchange during FFTs selected (reduces bandwidth)


 total amount of memory used by VASP on root node  60642. kBytes
========================================================================

   base      :    30000. kBytes
   nonl-proj :     4692. kBytes
   fftplans  :     2983. kBytes
   grid      :    21626. kBytes
   one-center:       95. kBytes
   wavefun   :     1246. kBytes
 
 Broyden mixing: mesh for mixing (old mesh)
   NGX = 23   NGY = 23   NGZ = 23
  (NGX  = 96   NGY  = 96   NGZ  = 96)
  gives a total of  12167 points

 initial charge density was supplied:
 charge density of overlapping atoms calculated
 number of electron   92.0000000 magnetization 
 keeping initial charge density in first step


--------------------------------------------------------------------------------------------------------


 Maximum index for augmentation-charges          619 (set IRDMAX)


--------------------------------------------------------------------------------------------------------


 First call to EWALD:  gamma=   0.219
 Maximum number of real-space cells 3x 3x 3
 Maximum number of reciprocal cells 3x 3x 3

    FEWALD:  cpu time    0.01: real time    0.01
   RESPFUN:  cpu time    0.00: real time    0.00


----------------------------------------- Iteration    1(   1)  ---------------------------------------


    POTLOK:  cpu time    0.15: real time    0.16
    SETDIJ:  cpu time    0.01: real time    0.01
    EDDIAG:  cpu time    0.31: real time    0.31
  RMM-DIIS:  cpu time    0.70: real time    0.70
    ORTHCH:  cpu time    0.02: real time    0.02
       DOS:  cpu time    0.00: real time    0.00
    --------------------------------------------
      LOOP:  cpu time    1.20: real time    1.20

 eigenvalue-minimisations  :   144
 total energy-change (2. order) : 0.2244933E+03  (-0.1545985E+04)
 number of electron   92.0000000 magnetization 
 augmentation part    92.0000000 magnetization 

 Free energy of the ion-electron system (eV)
  ---------------------------------------------------
  alpha Z        PSCENC =        -7.38313139
  Ewald energy   TEWEN  =     -2176.46779687
  -1/2 Hartree   DENC   =       -27.65180422
  -exchange  EXHF       =         0.00000000
  -V(xc)+E(xc)   XCENC  =      -796.31441840
  PAW double counting   =      1078.21717227     -108.50372521
  entropy T*S    EENTRO =         0.02127342
  eigenvalues    EBANDS =       633.44425187
  atomic energy  EATOM  =      1629.13144109
  ---------------------------------------------------
  free energy    TOTEN  =       224.49326257 eV

  energy without entropy =      224.47198915  energy(sigma->0) =      224.48617143


--------------------------------------------------------------------------------------------------------




----------------------------------------- Iteration    1(   2)  ---------------------------------------


    EDDIAG:  cpu time    0.30: real time    0.30
  RMM-DIIS:  cpu time    0.69: real time    0.69
    ORTHCH:  cpu time    0.02: real time    0.02
       DOS:  cpu time    0.00: real time    0.00
    --------------------------------------------
      LOOP:  cpu time    1.02: real time    1.02

 eigenvalue-minimisations  :   144
 total energy-change (2. order) :-0.2638007E+03  (-0.2540197E+03)
 number of electron   92.0000000 magnetization 
 augmentation part    92.0000000 magnetization 

 Free energy of the ion-electron system (eV)
  ---------------------------------------------------
  alpha Z        PSCENC =        -7.38313139
  Ewald energy   TEWEN  =     -2176.46779687
  -1/2 Hartree   DENC   =       -27.65180422
  -exchange  EXHF       =         0.00000000
  -V(xc)+E(xc)   XCENC  =      -796.31441840
  PAW double counting   =      1078.21717227     -108.50372521
  entropy T*S    EENTRO =        -0.00410040
  eigenvalues    EBANDS =       369.66889774
  atomic energy  EATOM  =      1629.13144109
  ---------------------------------------------------
  free energy    TOTEN  =       -39.30746538 eV

  energy without entropy =      -39.30336498  energy(sigma->0) =      -39.30609858


--------------------------------------------------------------------------------------------------------




----------------------------------------- Iteration    1(   3)  ---------------------------------------


    EDDIAG:  cpu time    0.30: real time    0.30
  RMM-DIIS:  cpu time    0.70: real time    0.70
    ORTHCH:  cpu time    0.02: real time    0.02
       DOS:  cpu time    0.00: real time    0.00
    --------------------------------------------
      LOOP:  cpu time    1.02: real time    1.04

 eigenvalue-minimisations  :   144
 total energy-change (2. order) :-0.5508988E+02  (-0.5339867E+02)
 number of electron   92.0000000 magnetization 
 augmentation part    92.0000000 magnetization 

 Free energy of the ion-electron system (eV)
  ---------------------------------------------------
  alpha Z        PSCENC =        -7.38313139
  Ewald energy   TEWEN  =     -2176.46779687
  -1/2 Hartree   DENC   =       -27.65180422
  -exchange  EXHF       =         0.00000000
  -V(xc)+E(xc)   XCENC  =      -796.31441840
  PAW double counting   =      1078.21717227     -108.50372521
  entropy T*S    EENTRO =        -0.01976661
  eigenvalues    EBANDS =       314.59467950
  atomic energy  EATOM  =      1629.13144109
  ---------------------------------------------------
  free energy    TOTEN  =       -94.39734983 eV

  energy without entropy =      -94.37758322  energy(sigma->0) =      -94.39076096


--------------------------------------------------------------------------------------------------------




----------------------------------------- Iteration    1(   4)  ---------------------------------------


    EDDIAG:  cpu time    0.30: real time    0.30
  RMM-DIIS:  cpu time    0.70: real time    0.70
    ORTHCH:  cpu time    0.02: real time    0.02
       DOS:  cpu time    0.00: real time    0.00
    --------------------------------------------
      LOOP:  cpu time    1.02: real time    1.02

 eigenvalue-minimisations  :   144
 total energy-change (2. order) :-0.1235257E+02  (-0.1086458E+02)
 number of electron   92.0000000 magnetization 
 augmentation part    92.0000000 magnetization 

 Free energy of the ion-electron system (eV)
  ---------------------------------------------------
  alpha Z        PSCENC =        -7.38313139
  Ewald energy   TEWEN  =     -2176.46779687
  -1/2 Hartree   DENC   =       -27.65180422
  -exchange  EXHF       =         0.00000000
  -V(xc)+E(xc)   XCENC  =      -796.31441840
  PAW double counting   =      1078.21717227     -108.50372521
  entropy T*S    EENTRO =        -0.06854578
  eigenvalues    EBANDS =       302.29088699
  atomic energy  EATOM  =      1629.13144109
  ---------------------------------------------------
  free energy    TOTEN  =      -106.74992151 eV

  energy without entropy =     -106.68137572  energy(sigma->0) =     -106.72707291


--------------------------------------------------------------------------------------------------------




----------------------------------------- Iteration    1(   5)  ---------------------------------------


    EDDIAG:  cpu time    0.30: real time    0.30
  RMM-DIIS:  cpu time    0.69: real time    0.70
    ORTHCH:  cpu time    0.02: real time    0.02
       DOS:  cpu time    0.00: real time    0.00
    --------------------------------------------
      LOOP:  cpu time    1.02: real time    1.02

 eigenvalue-minimisations  :   144
 total energy-change (2. order) :-0.4366765E+01  (-0.3283970E+01)
 number of electron   92.0000000 magnetization 
 augmentation part    92.0000000 magnetization 

 Free energy of the ion-electron system (eV)
  ---------------------------------------------------
  alpha Z        PSCENC =        -7.38313139
  Ewald energy   TEWEN  =     -2176.46779687
  -1/2 Hartree   DENC   =       -27.65180422
  -exchange  EXHF       =         0.00000000
  -V(xc)+E(xc)   XCENC  =      -796.31441840
  PAW double counting   =      1078.21717227     -108.50372521
  entropy T*S    EENTRO =        -0.01835881
  eigenvalues    EBANDS =       297.87393473
  atomic energy  EATOM  =      1629.13144109
  ---------------------------------------------------
  free energy    TOTEN  =      -111.11668680 eV

  energy without entropy =     -111.09832799  energy(sigma->0) =     -111.11056719


--------------------------------------------------------------------------------------------------------




----------------------------------------- Iteration    1(   6)  ---------------------------------------


    EDDIAG:  cpu time    0.30: real time    0.30
  RMM-DIIS:  cpu time    0.69: real time    0.69
    ORTHCH:  cpu time    0.02: real time    0.02
       DOS:  cpu time    0.00: real time    0.00
    --------------------------------------------
      LOOP:  cpu time    1.02: real time    1.02

 eigenvalue-minimisations  :   144
 total energy-change (2. order) :-0.1439331E+01  (-0.1061229E+01)
 number of electron   92.0000000 magnetization 
 augmentation part    92.0000000 magnetization 

 Free energy of the ion-electron system (eV)
  ---------------------------------------------------
  alpha Z        PSCENC =        -7.38313139
  Ewald energy   TEWEN  =     -2176.46779687
  -1/2 Hartree   DENC   =       -27.65180422
  -exchange  EXHF       =         0.00000000
  -V(xc)+E(xc)   XCENC  =      -796.31441840
  PAW double counting   =      1078.21717227     -108.50372521
  entropy T*S    EENTRO =         0.00002515
  eigenvalues    EBANDS =       296.41621966
  atomic energy  EATOM  =      1629.13144109
  ---------------------------------------------------
  free energy    TOTEN  =      -112.55601791 eV

  energy without entropy =     -112.55604306  energy(sigma->0) =     -112.55602629


--------------------------------------------------------------------------------------------------------




----------------------------------------- Iteration    1(   7)  ---------------------------------------


    EDDIAG:  cpu time    0.30: real time    0.30
  RMM-DIIS:  cpu time    0.70: real time    0.70
    ORTHCH:  cpu time    0.02: real time    0.02
       DOS:  cpu time    0.00: real time    0.00
    --------------------------------------------
      LOOP:  cpu time    1.02: real time    1.02

 eigenvalue-minimisations  :   144
 total energy-change (2. order) :-0.4378891E+00  (-0.3579342E+00)
 number of electron   92.0000000 magnetization 
 augmentation part    92.0000000 magnetization 

 Free energy of the ion-electron system (eV)
  ---------------------------------------------------
  alpha Z        PSCENC =        -7.38313139
  Ewald energy   TEWEN  =     -2176.46779687
  -1/2 Hartree   DENC   =       -27.65180422
  -exchange  EXHF       =         0.00000000
  -V(xc)+E(xc)   XCENC  =      -796.31441840
  PAW double counting   =      1078.21717227     -108.50372521
  entropy T*S    EENTRO =         0.00193147
  eigenvalues    EBANDS =       295.97642421
  atomic energy  EATOM  =      1629.13144109
  ---------------------------------------------------
  free energy    TOTEN  =      -112.99390704 eV

  energy without entropy =     -112.99583851  energy(sigma->0) =     -112.99455087


--------------------------------------------------------------------------------------------------------




----------------------------------------- Iteration    1(   8)  ---------------------------------------


    EDDIAG:  cpu time    0.30: real time    0.30
  RMM-DIIS:  cpu time    0.69: real time    0.69
    ORTHCH:  cpu time    0.02: real time    0.02
       DOS:  cpu time    0.00: real time    0.00
    --------------------------------------------
      LOOP:  cpu time    1.02: real time    1.02

 eigenvalue-minimisations  :   144
 total energy-change (2. order) :-0.1539270E+00  (-0.1303978E+00)
 number of electron   92.0000000 magnetization 
 augmentation part    92.0000000 magnetization 

 Free energy of the ion-electron system (eV)
  ---------------------------------------------------
  alpha Z        PSCENC =        -7.38313139
  Ewald energy   TEWEN  =     -2176.46779687
  -1/2 Hartree   DENC   =       -27.65180422
  -exchange  EXHF       =         0.00000000
  -V(xc)+E(xc)   XCENC  =      -796.31441840
  PAW double counting   =      1078.21717227     -108.50372521
  entropy T*S    EENTRO =        -0.00142537
  eigenvalues    EBANDS =       295.82585407
  atomic energy  EATOM  =      1629.13144109
  ---------------------------------------------------
  free energy    TOTEN  =      -113.14783402 eV

  energy without entropy =     -113.14640865  energy(sigma->0) =     -113.14735889


--------------------------------------------------------------------------------------------------------




----------------------------------------- Iteration    1(   9)  ---------------------------------------


    EDDIAG:  cpu time    0.30: real time    0.30
  RMM-DIIS:  cpu time    1.66: real time    1.66
    ORTHCH:  cpu time    0.02: real time    0.02
       DOS:  cpu time    0.00: real time    0.00
    --------------------------------------------
      LOOP:  cpu time    1.98: real time    1.98

 eigenvalue-minimisations  :   384
 total energy-change (2. order) :-0.8348657E-01  (-0.7637636E-01)
 number of electron   92.0000000 magnetization 
 augmentation part    92.0000000 magnetization 

 Free energy of the ion-electron system (eV)
  ---------------------------------------------------
  alpha Z        PSCENC =        -7.38313139
  Ewald energy   TEWEN  =     -2176.46779687
  -1/2 Hartree   DENC   =       -27.65180422
  -exchange  EXHF       =         0.00000000
  -V(xc)+E(xc)   XCENC  =      -796.31441840
  PAW double counting   =      1078.21717227     -108.50372521
  entropy T*S    EENTRO =        -0.00564552
  eigenvalues    EBANDS =       295.74658765
  atomic energy  EATOM  =      1629.13144109
  ---------------------------------------------------
  free energy    TOTEN  =      -113.23132058 eV

  energy without entropy =     -113.22567507  energy(sigma->0) =     -113.22943875


--------------------------------------------------------------------------------------------------------




----------------------------------------- Iteration    1(  10)  ---------------------------------------


    EDDIAG:  cpu time    0.30: real time    0.30
  RMM-DIIS:  cpu time    1.54: real time    1.54
    ORTHCH:  cpu time    0.02: real time    0.02
       DOS:  cpu time    0.00: real time    0.00
    --------------------------------------------
      LOOP:  cpu time    1.86: real time    1.86

 eigenvalue-minimisations  :   363
 total energy-change (2. order) :-0.1096016E-01  (-0.6723146E-02)
 number of electron   92.0000000 magnetization 
 augmentation part    92.0000000 magnetization 

 Free energy of the ion-electron system (eV)
  ---------------------------------------------------
  alpha Z        PSCENC =        -7.38313139
  Ewald energy   TEWEN  =     -2176.46779687
  -1/2 Hartree   DENC   =       -27.65180422
  -exchange  EXHF       =         0.00000000
  -V(xc)+E(xc)   XCENC  =      -796.31441840
  PAW double counting   =      1078.21717227     -108.50372521
  entropy T*S    EENTRO =        -0.00690266
  eigenvalues    EBANDS =       295.73688463
  atomic energy  EATOM  =      1629.13144109
  ---------------------------------------------------
  free energy    TOTEN  =      -113.24228075 eV

  energy without entropy =     -113.23537808  energy(sigma->0) =     -113.23997986


--------------------------------------------------------------------------------------------------------




----------------------------------------- Iteration    1(  11)  ---------------------------------------


    EDDIAG:  cpu time    0.30: real time    0.30
  RMM-DIIS:  cpu time    1.32: real time    1.32
    ORTHCH:  cpu time    0.02: real time    0.02
       DOS:  cpu time    0.00: real time    0.00
    --------------------------------------------
      LOOP:  cpu time    1.64: real time    1.64

 eigenvalue-minimisations  :   286
 total energy-change (2. order) :-0.4784623E-03  (-0.3571641E-03)
 number of electron   92.0000000 magnetization 
 augmentation part    92.0000000 magnetization 

 Free energy of the ion-electron system (eV)
  ---------------------------------------------------
  alpha Z        PSCENC =        -7.38313139
  Ewald energy   TEWEN  =     -2176.46779687
  -1/2 Hartree   DENC   =       -27.65180422
  -exchange  EXHF       =         0.00000000
  -V(xc)+E(xc)   XCENC  =      -796.31441840
  PAW double counting   =      1078.21717227     -108.50372521
  entropy T*S    EENTRO =        -0.00690813
  eigenvalues    EBANDS =       295.73641164
  atomic energy  EATOM  =      1629.13144109
  ---------------------------------------------------
  free energy    TOTEN  =      -113.24275921 eV

  energy without entropy =     -113.23585108  energy(sigma->0) =     -113.24045650


--------------------------------------------------------------------------------------------------------




----------------------------------------- Iteration    1(  12)  ---------------------------------------


    EDDIAG:  cpu time    0.30: real time    0.30
  RMM-DIIS:  cpu time    1.13: real time    1.13
    ORTHCH:  cpu time    0.02: real time    0.02
       DOS:  cpu time    0.00: real time    0.00
    CHARGE:  cpu time    0.18: real time    0.18
    MIXING:  cpu time    0.00: real time    0.00
    --------------------------------------------
      LOOP:  cpu time    1.64: real time    1.64

 eigenvalue-minimisations  :   217
 total energy-change (2. order) :-0.1934651E-04  (-0.1761366E-04)
 number of electron   91.9999998 magnetization 
 augmentation part    -1.1049353 magnetization 

 Broyden mixing:
  rms(total) = 0.54685E+00    rms(broyden)= 0.54683E+00
  rms(prec ) = 0.97593E+00
  weight for this iteration     100.00

 Free energy of the ion-electron system (eV)
  ---------------------------------------------------
  alpha Z        PSCENC =        -7.38313139
  Ewald energy   TEWEN  =     -2176.46779687
  -1/2 Hartree   DENC   =       -27.65180422
  -exchange  EXHF       =         0.00000000
  -V(xc)+E(xc)   XCENC  =      -796.31441840
  PAW double counting   =      1078.21717227     -108.50372521
  entropy T*S    EENTRO =        -0.00690718
  eigenvalues    EBANDS =       295.73639134
  atomic energy  EATOM  =      1629.13144109
  ---------------------------------------------------
  free energy    TOTEN  =      -113.24277856 eV

  energy without entropy =     -113.23587138  energy(sigma->0) =     -113.24047616


--------------------------------------------------------------------------------------------------------




----------------------------------------- Iteration    1(  13)  ---------------------------------------


    POTLOK:  cpu time    0.15: real time    0.15
    SETDIJ:  cpu time    0.01: real time    0.01
    EDDIAG:  cpu time    0.30: real time    0.30
  RMM-DIIS:  cpu time    1.37: real time    1.37
    ORTHCH:  cpu time    0.02: real time    0.02
       DOS:  cpu time    0.00: real time    0.00
    CHARGE:  cpu time    0.19: real time    0.19
    MIXING:  cpu time    0.00: real time    0.00
    --------------------------------------------
      LOOP:  cpu time    2.04: real time    2.04

 eigenvalue-minimisations  :   303
 total energy-change (2. order) : 0.8265401E+00  (-0.1073367E+00)
 number of electron   91.9999998 magnetization 
 augmentation part    -1.1132565 magnetization 

 Broyden mixing:
  rms(total) = 0.33048E+00    rms(broyden)= 0.33048E+00
  rms(prec ) = 0.49393E+00
  weight for this iteration     100.00

 eigenvalues of (default mixing * dielectric matrix)
  average eigenvalue GAMMA=   2.3401
  2.3401

 Free energy of the ion-electron system (eV)
  ---------------------------------------------------
  alpha Z        PSCENC =        -7.38313139
  Ewald energy   TEWEN  =     -2176.46779687
  -1/2 Hartree   DENC   =       -30.08158801
  -exchange  EXHF       =         0.00000000
  -V(xc)+E(xc)   XCENC  =      -795.16651664
  PAW double counting   =      1080.89588090     -111.33302509
  entropy T*S    EENTRO =        -0.00345661
  eigenvalues    EBANDS =       297.99195416
  atomic energy  EATOM  =      1629.13144109
  ---------------------------------------------------
  free energy    TOTEN  =      -112.41623847 eV

  energy without entropy =     -112.41278186  energy(sigma->0) =     -112.41508627


--------------------------------------------------------------------------------------------------------




----------------------------------------- Iteration    1(  14)  ---------------------------------------


    POTLOK:  cpu time    0.15: real time    0.15
    SETDIJ:  cpu time    0.01: real time    0.01
    EDDIAG:  cpu time    0.30: real time    0.30
  RMM-DIIS:  cpu time    1.45: real time    1.45
    ORTHCH:  cpu time    0.02: real time    0.02
       DOS:  cpu time    0.00: real time    0.00
    CHARGE:  cpu time    0.18: real time    0.18
    MIXING:  cpu time    0.00: real time    0.00
    --------------------------------------------
      LOOP:  cpu time    2.12: real time    2.12

 eigenvalue-minimisations  :   328
 total energy-change (2. order) : 0.2389054E+00  (-0.1680979E-01)
 number of electron   91.9999998 magnetization 
 augmentation part    -1.1259977 magnetization 

 Broyden mixing:
  rms(total) = 0.15600E+00    rms(broyden)= 0.15600E+00
  rms(prec ) = 0.22934E+00
  weight for this iteration     100.00

 eigenvalues of (default mixing * dielectric matrix)
  average eigenvalue GAMMA=   1.8080
  2.5895  1.0266

 Free energy of the ion-electron system (eV)
  ---------------------------------------------------
  alpha Z        PSCENC =        -7.38313139
  Ewald energy   TEWEN  =     -2176.46779687
  -1/2 Hartree   DENC   =       -31.10533800
  -exchange  EXHF       =         0.00000000
  -V(xc)+E(xc)   XCENC  =      -794.02317283
  PAW double counting   =      1082.69791552     -113.28387146
  entropy T*S    EENTRO =        -0.00526256
  eigenvalues    EBANDS =       298.26188340
  atomic energy  EATOM  =      1629.13144109
  ---------------------------------------------------
  free energy    TOTEN  =      -112.17733309 eV

  energy without entropy =     -112.17207053  energy(sigma->0) =     -112.17557891


--------------------------------------------------------------------------------------------------------




----------------------------------------- Iteration    1(  15)  ---------------------------------------


    POTLOK:  cpu time    0.15: real time    0.15
    SETDIJ:  cpu time    0.01: real time    0.01
    EDDIAG:  cpu time    0.30: real time    0.30
  RMM-DIIS:  cpu time    1.43: real time    1.44
    ORTHCH:  cpu time    0.02: real time    0.02
       DOS:  cpu time    0.00: real time    0.00
    CHARGE:  cpu time    0.18: real time    0.18
    MIXING:  cpu time    0.00: real time    0.00
    --------------------------------------------
      LOOP:  cpu time    2.10: real time    2.12

 eigenvalue-minimisations  :   327
 total energy-change (2. order) : 0.6645865E-01  (-0.5238169E-02)
 number of electron   91.9999998 magnetization 
 augmentation part    -1.1389889 magnetization 

 Broyden mixing:
  rms(total) = 0.19446E-01    rms(broyden)= 0.19446E-01
  rms(prec ) = 0.34250E-01
  weight for this iteration     100.00

 eigenvalues of (default mixing * dielectric matrix)
  average eigenvalue GAMMA=   1.7398
  2.6190  1.0083  1.5922

 Free energy of the ion-electron system (eV)
  ---------------------------------------------------
  alpha Z        PSCENC =        -7.38313139
  Ewald energy   TEWEN  =     -2176.46779687
  -1/2 Hartree   DENC   =       -32.05803398
  -exchange  EXHF       =         0.00000000
  -V(xc)+E(xc)   XCENC  =      -792.95642988
  PAW double counting   =      1084.06762748     -114.79811433
  entropy T*S    EENTRO =        -0.00588807
  eigenvalues    EBANDS =       298.35945150
  atomic energy  EATOM  =      1629.13144109
  ---------------------------------------------------
  free energy    TOTEN  =      -112.11087445 eV

  energy without entropy =     -112.10498638  energy(sigma->0) =     -112.10891176


--------------------------------------------------------------------------------------------------------




----------------------------------------- Iteration    1(  16)  ---------------------------------------


    POTLOK:  cpu time    0.15: real time    0.15
    SETDIJ:  cpu time    0.01: real time    0.01
    EDDIAG:  cpu time    0.30: real time    0.30
  RMM-DIIS:  cpu time    1.48: real time    1.48
    ORTHCH:  cpu time    0.02: real time    0.02
       DOS:  cpu time    0.00: real time    0.00
    CHARGE:  cpu time    0.18: real time    0.18
    MIXING:  cpu time    0.00: real time    0.00
    --------------------------------------------
      LOOP:  cpu time    2.15: real time    2.15

 eigenvalue-minimisations  :   339
 total energy-change (2. order) : 0.1987313E-02  (-0.3780925E-03)
 number of electron   91.9999998 magnetization 
 augmentation part    -1.1424176 magnetization 

 Broyden mixing:
  rms(total) = 0.54235E-02    rms(broyden)= 0.54234E-02
  rms(prec ) = 0.92576E-02
  weight for this iteration     100.00

 eigenvalues of (default mixing * dielectric matrix)
  average eigenvalue GAMMA=   1.7834
  2.6481  2.2179  1.0515  1.2160

 Free energy of the ion-electron system (eV)
  ---------------------------------------------------
  alpha Z        PSCENC =        -7.38313139
  Ewald energy   TEWEN  =     -2176.46779687
  -1/2 Hartree   DENC   =       -32.06983660
  -exchange  EXHF       =         0.00000000
  -V(xc)+E(xc)   XCENC  =      -792.82906495
  PAW double counting   =      1084.33169764     -115.09287717
  entropy T*S    EENTRO =        -0.00569303
  eigenvalues    EBANDS =       298.27637415
  atomic energy  EATOM  =      1629.13144109
  ---------------------------------------------------
  free energy    TOTEN  =      -112.10888713 eV

  energy without entropy =     -112.10319410  energy(sigma->0) =     -112.10698946


--------------------------------------------------------------------------------------------------------




----------------------------------------- Iteration    1(  17)  ---------------------------------------


    POTLOK:  cpu time    0.15: real time    0.15
    SETDIJ:  cpu time    0.01: real time    0.01
    EDDIAG:  cpu time    0.30: real time    0.30
  RMM-DIIS:  cpu time    1.37: real time    1.37
    ORTHCH:  cpu time    0.02: real time    0.02
       DOS:  cpu time    0.00: real time    0.00
    --------------------------------------------
      LOOP:  cpu time    1.85: real time    1.85

 eigenvalue-minimisations  :   298
 total energy-change (2. order) : 0.5932147E-04  (-0.4626368E-04)
 number of electron   91.9999998 magnetization 
 augmentation part    -1.1424176 magnetization 

 Free energy of the ion-electron system (eV)
  ---------------------------------------------------
  alpha Z        PSCENC =        -7.38313139
  Ewald energy   TEWEN  =     -2176.46779687
  -1/2 Hartree   DENC   =       -32.04043657
  -exchange  EXHF       =         0.00000000
  -V(xc)+E(xc)   XCENC  =      -792.80760819
  PAW double counting   =      1084.39295802     -115.16548324
  entropy T*S    EENTRO =        -0.00543148
  eigenvalues    EBANDS =       298.23666082
  atomic energy  EATOM  =      1629.13144109
  ---------------------------------------------------
  free energy    TOTEN  =      -112.10882781 eV

  energy without entropy =     -112.10339633  energy(sigma->0) =     -112.10701732


--------------------------------------------------------------------------------------------------------




 average (electrostatic) potential at core
  the test charge radii are     1.0406  1.0714
  (the norm of the test charge is              1.0000)
       1 -72.9684       2 -73.1297       3 -73.0297       4 -73.0297       5 -73.0501
       6 -73.0502       7 -73.0498       8 -72.8995       9 -73.0197      10 -73.0297
      11 -73.0297      12 -73.0834      13 -73.0834      14 -73.0498      15 -72.8995
      16 -73.0501      17 -73.0502      18 -72.8995      19 -73.0498      20 -73.1299
      21 -72.9684      22 -73.0297      23 -73.0297      24 -73.0834      25 -73.0834
      26 -72.8995      27 -73.0498      28 -73.0196      29 -73.0297      30 -73.0297
      31 -50.6454
 
 
 
 E-fermi :   7.8722     XC(G=0): -10.0127     alpha+bet :-14.3074
   add alpha+bet to get absolut eigen values

 k-point   1 :       0.2500    0.2500    0.2500
  band No.  band energies     occupation 
      1      -2.9832      2.00000
      2      -1.9605      2.00000
      3      -1.8790      2.00000
      4      -1.6418      2.00000
      5      -0.8122      2.00000
      6      -0.7610      2.00000
      7      -0.3541      2.00000
      8       0.2571      2.00000
      9       0.3214      2.00000
     10       0.5327      2.00000
     11       0.6160      2.00000
     12       1.3445      2.00000
     13       1.3634      2.00000
     14       1.4058      2.00000
     15       1.5398      2.00000
     16       1.8138      2.00000
     17       1.9404      2.00000
     18       2.7007      2.00000
     19       2.7084      2.00000
     20       2.9043      2.00000
     21       3.5302      2.00000
     22       3.5915      2.00000
     23       3.6288      2.00000
     24       3.6773      2.00000
     25       3.7362      2.00000
     26       4.0507      2.00000
     27       4.5307      2.00000
     28       4.5579      2.00000
     29       4.6449      2.00000
     30       4.8073      2.00000
     31       4.8647      2.00000
     32       4.8705      2.00000
     33       4.9292      2.00000
     34       5.1106      2.00000
     35       5.2062      2.00000
     36       5.7266      2.00000
     37       5.8928      2.00000
     38       6.3558      2.00000
     39       6.7098      2.00000
     40       6.7754      2.00000
     41       6.7864      2.00000
     42       6.9445      2.00000
     43       6.9892      2.00000
     44       7.0941      2.00000
     45       7.1499      2.00000
     46       7.7893      1.63953
     47       7.8875      0.87127
     48       8.0061      0.10251
     49       8.0363      0.00979
     50       8.1622     -0.05963
     51       8.1987     -0.04317
     52       8.2074     -0.03925
     53       8.3736     -0.00225
     54       8.5365     -0.00003
     55       9.0566      0.00000
     56       9.1370      0.00000
     57       9.1879      0.00000
     58       9.3542      0.00000
     59       9.3717      0.00000
     60       9.5129      0.00000
     61       9.9705      0.00000
     62       9.9848      0.00000
     63      10.0640      0.00000
     64      10.1556      0.00000
     65      10.2033      0.00000
     66      10.2110      0.00000
     67      10.5179      0.00000
     68      10.6485      0.00000
     69      10.7764      0.00000
     70      10.9340      0.00000
     71      11.0782      0.00000
     72      11.2220      0.00000

 k-point   2 :      -0.2500    0.2500    0.2500
  band No.  band energies     occupation 
      1      -2.9862      2.00000
      2      -1.9508      2.00000
      3      -1.8158      2.00000
      4      -1.7222      2.00000
      5      -0.8256      2.00000
      6      -0.6097      2.00000
      7      -0.5486      2.00000
      8       0.2614      2.00000
      9       0.3983      2.00000
     10       0.4416      2.00000
     11       0.6991      2.00000
     12       1.3931      2.00000
     13       1.4280      2.00000
     14       1.4930      2.00000
     15       1.4930      2.00000
     16       1.7684      2.00000
     17       1.8425      2.00000
     18       2.6213      2.00000
     19       2.7731      2.00000
     20       2.8394      2.00000
     21       3.5376      2.00000
     22       3.5880      2.00000
     23       3.6341      2.00000
     24       3.6811      2.00000
     25       3.8115      2.00000
     26       3.9635      2.00000
     27       4.5976      2.00000
     28       4.6513      2.00000
     29       4.6781      2.00000
     30       4.6987      2.00000
     31       4.7165      2.00000
     32       4.9494      2.00000
     33       4.9733      2.00000
     34       5.0595      2.00000
     35       5.1748      2.00000
     36       5.7461      2.00000
     37       6.1172      2.00000
     38       6.1779      2.00000
     39       6.7060      2.00000
     40       6.7467      2.00000
     41       6.9173      2.00000
     42       7.0237      2.00000
     43       7.0333      2.00000
     44       7.0703      2.00000
     45       7.1414      2.00000
     46       7.8377      1.28728
     47       7.9568      0.35014
     48       7.9945      0.14988
     49       8.0670     -0.04443
     50       8.1491     -0.06467
     51       8.1719     -0.05546
     52       8.1879     -0.04816
     53       8.2169     -0.03510
     54       8.2639     -0.01826
     55       9.0950      0.00000
     56       9.1467      0.00000
     57       9.2730      0.00000
     58       9.3780      0.00000
     59       9.4079      0.00000
     60       9.4876      0.00000
     61       9.9683      0.00000
     62       9.9794      0.00000
     63      10.0422      0.00000
     64      10.0515      0.00000
     65      10.1422      0.00000
     66      10.2311      0.00000
     67      10.5554      0.00000
     68      10.5656      0.00000
     69      10.6812      0.00000
     70      10.9774      0.00000
     71      11.2556      0.00000
     72      11.3648      0.00000


--------------------------------------------------------------------------------------------------------


 soft charge-density along one line, spin component           1
         0         1         2         3         4         5         6         7         8         9
 total charge-density along one line
 
 pseudopotential strength for first ion, spin component:           1
  8.459  -0.006   0.000   0.000   0.000   0.000   0.000   0.000
 -0.006   0.000   0.000   0.000   0.000   0.000   0.000   0.000
  0.000   0.000   1.989   0.000   0.000  -0.026   0.000   0.000
  0.000   0.000   0.000   1.989   0.000   0.000  -0.026   0.000
  0.000   0.000   0.000   0.000   1.989   0.000   0.000  -0.026
  0.000   0.000  -0.026   0.000   0.000  -0.012   0.000   0.000
  0.000   0.000   0.000  -0.026   0.000   0.000  -0.012   0.000
  0.000   0.000   0.000   0.000  -0.026   0.000   0.000  -0.012
 total augmentation occupancy for first ion, spin component:           1
  1.305  -0.543   0.000   0.000   0.000   0.000   0.002   0.002
 -0.543   0.518   0.000   0.002   0.002   0.000  -0.001  -0.001
  0.000   0.000   0.751   0.000   0.000  -0.187   0.000   0.000
  0.000   0.002   0.000   0.764  -0.011   0.000  -0.193   0.005
  0.000   0.002   0.000  -0.011   0.764   0.000   0.005  -0.193
  0.000   0.000  -0.187   0.000   0.000   0.053   0.000   0.000
  0.002  -0.001   0.000  -0.193   0.005   0.000   0.055  -0.002
  0.002  -0.001   0.000   0.005  -0.193   0.000  -0.002   0.055


------------------------ aborting loop because EDIFF is reached ----------------------------------------




--------------------------------------------------------------------------------------------------------



  FREE ENERGIE OF THE ION-ELECTRON SYSTEM (eV)
  ---------------------------------------------------
  free  energy   TOTEN  =      -112.108828 eV

  energy  without entropy=     -112.103396  energy(sigma->0) =     -112.107017
 
    CHARGE:  cpu time    0.18: real time    0.18
    FORLOC:  cpu time    0.03: real time    0.04
    FORNL :  cpu time    0.46: real time    0.46
    STRESS:  cpu time    1.00: real time    1.00
    FORCOR:  cpu time    0.17: real time    0.17
    FORHAR:  cpu time    0.07: real time    0.07
    MIXING:  cpu time    0.00: real time    0.00

  FORCE on cell =-STRESS in cart. coord.  units (eV):
  Direction    XX          YY          ZZ          XY          YZ          ZX
  --------------------------------------------------------------------------------------
  Alpha Z    -7.38313    -7.38313    -7.38313
  Ewald    -722.79765  -730.88100  -722.79765     0.00000     0.00000     1.65543
  Hartree    14.50346     3.09575    14.50346     0.00000     0.00000     3.58006
  E(xc)    -260.98916  -261.29641  -260.98916     0.00000     0.00000     0.19146
  Local     -24.27718    -4.64562   -24.27718     0.00000     0.00000    -5.34533
  n-local   577.94170   580.72844   577.94133     0.43807    -0.97980    -1.83806
  augment   -30.49005   -30.69080   -30.49006     0.00000     0.00000     0.01077
  Kinetic   452.52614   457.14634   452.52586    -4.05637     0.31299     2.59963
  Fock        0.00000     0.00000     0.00000     0.00000     0.00000     0.00000
  -------------------------------------------------------------------------------------
  Total      -0.96620     6.07357    -0.96620     0.00000     0.00000     0.85396
  in kB      -2.92690    18.39857    -2.92690     0.00000     0.00000     2.58688
  external pressure =        4.18 kB  Pullay stress =        0.00 kB


 VOLUME and BASIS-vectors are now :
 -----------------------------------------------------------------------------
  energy-cutoff  :      300.00
  volume of cell :      528.90
      direct lattice vectors                 reciprocal lattice vectors
     8.087052000  0.000000000  0.000000000     0.123654454  0.000000000  0.000000000
     0.000000000  8.087052000  0.000000000     0.000000000  0.123654454  0.000000000
     0.000000000  0.000000000  8.087052000     0.000000000  0.000000000  0.123654454

  length of vectors
     8.087052000  8.087052000  8.087052000     0.123654454  0.123654454  0.123654454


 FORCES acting on ions
    electron-ion (+dipol)            ewald-force                    non-local-force                 convergence-correction
 -----------------------------------------------------------------------------------------------
   -.222E+01 0.833E-06 -.222E+01   0.208E+01 0.668E-04 0.208E+01   0.121E+00 0.000E+00 0.121E+00   0.154E-02 -.369E-06 0.154E-02
   -.207E+01 0.212E-07 -.207E+01   0.192E+01 0.164E-05 0.192E+01   0.165E+00 0.000E+00 0.165E+00   0.203E-02 0.243E-07 0.203E-02
   -.240E+01 -.103E+02 -.727E+01   0.208E+01 0.103E+02 0.733E+01   0.372E+00 0.226E-01 -.263E-01   0.173E-02 0.859E-02 0.638E-02
   -.727E+01 -.103E+02 -.240E+01   0.733E+01 0.103E+02 0.208E+01   -.263E-01 0.226E-01 0.372E+00   0.638E-02 0.859E-02 0.173E-02
   0.144E+01 0.398E-06 -.226E+01   -.174E+01 0.317E-04 0.161E+01   0.324E+00 0.000E+00 0.695E+00   -.159E-02 -.168E-06 0.112E-02
   0.226E+01 0.398E-06 -.144E+01   -.161E+01 0.317E-04 0.174E+01   -.695E+00 0.000E+00 -.324E+00   -.114E-02 -.168E-06 0.161E-02
   0.193E+01 -.510E+01 -.193E+01   -.194E+01 0.504E+01 0.194E+01   -.326E-02 0.113E+00 0.326E-02   -.186E-02 0.342E-02 0.185E-02
   0.711E+01 -.124E+02 -.711E+01   -.697E+01 0.126E+02 0.697E+01   -.131E+00 -.160E+00 0.131E+00   -.603E-02 0.117E-01 0.606E-02
   -.748E+01 0.864E-06 -.748E+01   0.736E+01 0.694E-04 0.736E+01   0.146E+00 0.000E+00 0.146E+00   0.672E-02 -.974E-06 0.672E-02
   -.240E+01 0.103E+02 -.727E+01   0.208E+01 -.103E+02 0.733E+01   0.372E+00 -.226E-01 -.263E-01   0.173E-02 -.859E-02 0.638E-02
   -.727E+01 0.103E+02 -.240E+01   0.733E+01 -.103E+02 0.208E+01   -.263E-01 -.226E-01 0.372E+00   0.638E-02 -.859E-02 0.173E-02
   0.650E+01 0.405E-06 -.649E+01   -.684E+01 0.325E-04 0.650E+01   0.331E+00 0.000E+00 0.327E-01   -.652E-02 -.641E-06 0.581E-02
   0.649E+01 0.405E-06 -.650E+01   -.650E+01 0.325E-04 0.684E+01   -.327E-01 0.000E+00 -.331E+00   -.582E-02 -.641E-06 0.654E-02
   0.193E+01 0.510E+01 -.193E+01   -.194E+01 -.504E+01 0.194E+01   -.326E-02 -.113E+00 0.326E-02   -.186E-02 -.342E-02 0.185E-02
   0.711E+01 0.124E+02 -.711E+01   -.697E+01 -.126E+02 0.697E+01   -.131E+00 0.160E+00 0.131E+00   -.603E-02 -.117E-01 0.606E-02
   -.226E+01 0.398E-06 0.144E+01   0.161E+01 0.317E-04 -.174E+01   0.695E+00 0.000E+00 0.324E+00   0.112E-02 -.168E-06 -.159E-02
   -.144E+01 0.398E-06 0.226E+01   0.174E+01 0.317E-04 -.161E+01   -.324E+00 0.000E+00 -.695E+00   0.161E-02 -.168E-06 -.114E-02
   -.711E+01 -.124E+02 0.711E+01   0.697E+01 0.126E+02 -.697E+01   0.131E+00 -.160E+00 -.131E+00   0.606E-02 0.117E-01 -.603E-02
   -.193E+01 -.510E+01 0.193E+01   0.194E+01 0.504E+01 -.194E+01   0.326E-02 0.113E+00 -.326E-02   0.185E-02 0.342E-02 -.186E-02
   0.207E+01 0.212E-07 0.207E+01   -.192E+01 0.164E-05 -.192E+01   -.165E+00 0.000E+00 -.165E+00   -.201E-02 0.243E-07 -.201E-02
   0.222E+01 0.833E-06 0.222E+01   -.208E+01 0.668E-04 -.208E+01   -.121E+00 0.000E+00 -.121E+00   -.156E-02 -.369E-06 -.156E-02
   0.727E+01 -.103E+02 0.240E+01   -.733E+01 0.103E+02 -.208E+01   0.263E-01 0.226E-01 -.372E+00   -.641E-02 0.858E-02 -.173E-02
   0.240E+01 -.103E+02 0.727E+01   -.208E+01 0.103E+02 -.733E+01   -.372E+00 0.226E-01 0.263E-01   -.173E-02 0.858E-02 -.641E-02
   -.649E+01 0.405E-06 0.650E+01   0.650E+01 0.325E-04 -.684E+01   0.327E-01 0.000E+00 0.331E+00   0.581E-02 -.641E-06 -.652E-02
   -.650E+01 0.405E-06 0.649E+01   0.684E+01 0.325E-04 -.650E+01   -.331E+00 -.173E-17 -.327E-01   0.654E-02 -.641E-06 -.582E-02
   -.711E+01 0.124E+02 0.711E+01   0.697E+01 -.126E+02 -.697E+01   0.131E+00 0.160E+00 -.131E+00   0.606E-02 -.117E-01 -.603E-02
   -.193E+01 0.510E+01 0.193E+01   0.194E+01 -.504E+01 -.194E+01   0.326E-02 -.113E+00 -.326E-02   0.185E-02 -.342E-02 -.186E-02
   0.748E+01 0.864E-06 0.748E+01   -.736E+01 0.694E-04 -.736E+01   -.146E+00 0.000E+00 -.146E+00   -.673E-02 -.974E-06 -.673E-02
   0.727E+01 0.103E+02 0.240E+01   -.733E+01 -.103E+02 -.208E+01   0.263E-01 -.226E-01 -.372E+00   -.641E-02 -.858E-02 -.173E-02
   0.240E+01 0.103E+02 0.727E+01   -.208E+01 -.103E+02 -.733E+01   -.372E+00 -.226E-01 0.263E-01   -.173E-02 -.858E-02 -.641E-02
   -.970E-06 0.163E-07 -.970E-06   -.734E-04 0.136E-05 -.734E-04   -.339E-20 0.000E+00 -.127E-20   0.973E-05 -.178E-06 0.973E-05
 -----------------------------------------------------------------------------------------------
   0.537E-03 0.356E-03 0.537E-03   -.223E-13 0.477E-13 -.500E-14   -.339E-20 0.312E-16 0.278E-16   -.980E-05 0.603E-06 -.980E-05
 
 
 POSITION                                       TOTAL-FORCE (eV/Angst)
 -----------------------------------------------------------------------------------
      0.00733      0.00000      0.00733        -0.016397      0.000000     -0.016397
      1.99628      0.00000      1.99628         0.020694      0.000000      0.020694
      2.01752      2.06675      0.03937         0.049456      0.070313      0.042666
      0.03937      2.06675      2.01752         0.042666      0.070313      0.049456
      4.04537      0.00000      7.97580         0.026216      0.000000      0.048816
      6.17654      0.00000      2.01993        -0.048816      0.000000     -0.026216
      6.09404      1.99977      8.05831        -0.014175      0.054965      0.014175
      4.13599      1.84461      1.92931         0.000444     -0.024830     -0.000444
      8.08691      4.04353      8.08691         0.029142      0.000000      0.029142
      2.01752      6.02030      0.03937         0.049456     -0.070313      0.042666
      0.03937      6.02030      2.01752         0.042666     -0.070313      0.049456
      4.03355      4.04353      0.02577        -0.017610      0.000000      0.051236
      6.03952      4.04353      2.03173        -0.051236      0.000000      0.017610
      6.09404      6.08729      8.05831        -0.014175     -0.054965      0.014175
      4.13599      6.24244      1.92931         0.000444      0.024830     -0.000444
      7.97580      0.00000      4.04537         0.048816      0.000000      0.026216
      2.01993      0.00000      6.17654        -0.026216      0.000000     -0.048816
      1.92931      1.84461      4.13599        -0.000444     -0.024830      0.000444
      8.05831      1.99977      6.09404         0.014175      0.054965     -0.014175
      4.06901      0.00000      4.06901        -0.020694      0.000000     -0.020694
      6.05796      0.00000      6.05796         0.016397      0.000000      0.016397
      6.02591      2.06675      4.04778        -0.042666      0.070313     -0.049456
      4.04778      2.06675      6.02591        -0.049456      0.070313     -0.042666
      0.02577      4.04353      4.03355         0.051236      0.000000     -0.017610
      2.03173      4.04353      6.03952         0.017610      0.000000     -0.051236
      1.92931      6.24244      4.13599        -0.000444      0.024830      0.000444
      8.05831      6.08729      6.09404         0.014175     -0.054965     -0.014175
      6.06543      4.04353      6.06543        -0.029142      0.000000     -0.029142
      6.02591      6.02030      4.04778        -0.042666     -0.070313     -0.049456
      4.04778      6.02030      6.02591        -0.049456     -0.070313     -0.042666
      3.03264      4.04353      3.03264         0.000000      0.000000      0.000000
 -----------------------------------------------------------------------------------
    total drift:                                0.000528      0.000357      0.000528


--------------------------------------------------------------------------------------------------------


    POTLOK:  cpu time    0.16: real time    0.16


--------------------------------------------------------------------------------------------------------


  FORCES: max atom, RMS     0.095970    0.062230
  FORCE total and by dimension    0.346481    0.070313
     LOOP+:  cpu time   27.82: real time   27.89
    4ORBIT:  cpu time    0.00: real time    0.00

 total amount of memory used by VASP on root node  60642. kBytes
========================================================================

   base      :    30000. kBytes
   nonl-proj :     4692. kBytes
   fftplans  :     2983. kBytes
   grid      :    21626. kBytes
   one-center:       95. kBytes
   wavefun   :     1246. kBytes
 
  
  
 General timing and accounting informations for this job:
 ========================================================
  
                  Total CPU time used (sec):       28.547
                            User time (sec):       28.434
                          System time (sec):        0.113
                         Elapsed time (sec):       28.772
  
                   Maximum memory used (kb):           0.
                   Average memory used (kb):           0.
  
                          Minor page faults:        23078
                          Major page faults:           26
                 Voluntary context switches:         2090
