<?xml version="1.0" encoding="ISO-8859-1"?>
<modeling>
 <generator>
  <i name="program" type="string">vasp </i>
  <i name="version" type="string">5.2.2  </i>
  <i name="subversion" type="string">15Apr09 complex  parallel </i>
  <i name="platform" type="string">LinuxIFC </i>
  <i name="date" type="string">2017 03 17 </i>
  <i name="time" type="string">11:38:50 </i>
 </generator>
 <incar>
  <i type="string" name="PREC">accurate</i>
  <i type="int" name="IALGO">    48</i>
  <i type="int" name="IBRION">    -1</i>
  <i name="EDIFFG">      0.05000000</i>
  <i type="int" name="NSW">     0</i>
  <i type="int" name="ISIF">     2</i>
  <i name="ENCUT">    300.00000000</i>
  <i name="NELECT">     92.00000000</i>
  <i type="int" name="ISMEAR">     1</i>
  <i name="SIGMA">      0.20000000</i>
  <i type="logical" name="LWAVE"> F  </i>
  <i type="logical" name="LCHARG"> F  </i>
  <i type="logical" name="LPEAD"> F  </i>
  <i type="logical" name="LCALCPOL"> F  </i>
  <i type="logical" name="LCALCEPS"> F  </i>
  <v name="EFIELD_PEAD">      0.00000000      0.00000000      0.00000000</v>
  <i type="logical" name="LEFG"> F  </i>
 </incar>
 <kpoints>
  <generation param="Monkhorst-Pack">
   <v type="int" name="divisions">       2        2        2 </v>
   <v name="usershift">      0.00000000       0.00000000       0.00000000 </v>
   <v name="genvec1">      0.50000000       0.00000000       0.00000000 </v>
   <v name="genvec2">      0.00000000       0.50000000       0.00000000 </v>
   <v name="genvec3">      0.00000000       0.00000000       0.50000000 </v>
   <v name="shift">      0.50000000       0.50000000       0.50000000 </v>
  </generation>
  <varray name="kpointlist" >
   <v>       0.25000000       0.25000000       0.25000000 </v>
   <v>      -0.25000000       0.25000000       0.25000000 </v>
  </varray>
  <varray name="weights" >
   <v>       0.50000000 </v>
   <v>       0.50000000 </v>
  </varray>
 </kpoints>
 <parameters>
  <separator name="general" >
   <i type="string" name="SYSTEM">unknown system</i>
   <i type="logical" name="LCOMPAT"> F  </i>
  </separator>
  <separator name="electronic" >
   <i type="string" name="PREC">accura</i>
   <i name="ENMAX">    300.00000000</i>
   <i name="ENAUG">    291.05200000</i>
   <i name="EDIFF">      0.00010000</i>
   <i type="int" name="IALGO">    48</i>
   <i type="int" name="IWAVPR">    10</i>
   <i type="int" name="NBANDS">    72</i>
   <i name="NELECT">     92.00000000</i>
   <separator name="electronic smearing" >
    <i type="int" name="ISMEAR">     1</i>
    <i name="SIGMA">      0.20000000</i>
   </separator>
   <separator name="electronic projectors" >
    <i type="logical" name="LREAL"> F  </i>
    <v name="ROPT">      0.00000000      0.00000000</v>
    <i type="int" name="LMAXPAW">  -100</i>
    <i type="int" name="LMAXMIX">     2</i>
   </separator>
   <separator name="electronic startup" >
    <i type="int" name="ISTART">     0</i>
    <i type="int" name="ICHARG">     2</i>
    <i type="int" name="INIWAV">     1</i>
   </separator>
   <separator name="electronic spin" >
    <i type="int" name="ISPIN">     1</i>
    <i type="logical" name="LNONCOLLINEAR"> F  </i>
    <v name="MAGMOM">      1.00000000      1.00000000      1.00000000      1.00000000      1.00000000      1.00000000      1.00000000      1.00000000      1.00000000      1.00000000      1.00000000      1.00000000      1.00000000      1.00000000      1.00000000      1.00000000      1.00000000      1.00000000      1.00000000      1.00000000
      1.00000000      1.00000000      1.00000000      1.00000000      1.00000000      1.00000000      1.00000000      1.00000000      1.00000000      1.00000000      1.00000000</v>
    <i name="NUPDOWN">     -1.00000000</i>
    <i type="logical" name="LSORBIT"> F  </i>
    <v name="SAXIS">      0.00000000      0.00000000      1.00000000</v>
    <i type="logical" name="LSPIRAL"> F  </i>
    <v name="QSPIRAL">      0.00000000      0.00000000      0.00000000</v>
    <i type="logical" name="LZEROZ"> F  </i>
   </separator>
   <separator name="electronic exchange-correlation" >
    <i type="logical" name="LASPH"> F  </i>
    <i type="logical" name="LMETAGGA"> F  </i>
   </separator>
   <separator name="electronic convergence" >
    <i type="int" name="NELM">    60</i>
    <i type="int" name="NELMDL">   -12</i>
    <i type="int" name="NELMIN">     2</i>
    <i name="ENINI">    300.00000000</i>
    <separator name="electronic convergence detail" >
     <i type="logical" name="LDIAG"> T  </i>
     <i name="WEIMIN">      0.00000000</i>
     <i name="EBREAK">      0.00000040</i>
     <i name="DEPER">      0.30000000</i>
     <i type="int" name="NRMM">     4</i>
     <i name="TIME">      0.40000000</i>
    </separator>
   </separator>
   <separator name="electronic mixer" >
    <i name="AMIX">      0.40000000</i>
    <i name="BMIX">      1.00000000</i>
    <i name="AMIN">      0.10000000</i>
    <i name="AMIX_MAG">      1.60000000</i>
    <i name="BMIX_MAG">      1.00000000</i>
    <separator name="electronic mixer details" >
     <i type="int" name="IMIX">     4</i>
     <i type="int" name="MAXMIX">   -45</i>
     <i name="WC">    100.00000000</i>
     <i type="int" name="INIMIX">     1</i>
     <i type="int" name="MIXPRE">     1</i>
     <i type="int" name="MREMOVE">     5</i>
    </separator>
   </separator>
   <separator name="electronic dipolcorrection" >
    <i type="logical" name="LDIPOL"> F  </i>
    <i type="logical" name="LMONO"> F  </i>
    <i type="int" name="IDIPOL">     0</i>
    <i name="EPSILON">      1.00000000</i>
    <v name="DIPOL">   -100.00000000   -100.00000000   -100.00000000</v>
    <i name="EFIELD">      0.00000000</i>
   </separator>
  </separator>
  <separator name="grids" >
   <i type="int" name="NGX">    48</i>
   <i type="int" name="NGY">    48</i>
   <i type="int" name="NGZ">    48</i>
   <i type="int" name="NGXF">    96</i>
   <i type="int" name="NGYF">    96</i>
   <i type="int" name="NGZF">    96</i>
   <i type="logical" name="ADDGRID"> F  </i>
  </separator>
  <separator name="ionic" >
   <i type="int" name="NSW">     0</i>
   <i type="int" name="IBRION">    -1</i>
   <i type="int" name="ISIF">     2</i>
   <i name="PSTRESS">      0.00000000</i>
   <i name="EDIFFG">      0.05000000</i>
   <i type="int" name="NFREE">     0</i>
   <i name="POTIM">      0.50000000</i>
   <i name="SMASS">     -3.00000000</i>
  </separator>
  <separator name="ionic md" >
   <i name="TEBEG">      0.00010000</i>
   <i name="TEEND">      0.00010000</i>
   <i type="int" name="NBLOCK">     1</i>
   <i type="int" name="KBLOCK">     1</i>
   <i type="int" name="NPACO">   256</i>
   <i name="APACO">     16.00000000</i>
  </separator>
  <separator name="symmetry" >
   <i type="int" name="ISYM">     2</i>
   <i name="SYMPREC">      0.00001000</i>
  </separator>
  <separator name="dos" >
   <i type="logical" name="LORBIT"> F  </i>
   <v name="RWIGS">     -1.00000000     -1.00000000</v>
   <i type="int" name="NEDOS">   301</i>
   <i name="EMIN">     10.00000000</i>
   <i name="EMAX">    -10.00000000</i>
   <i name="EFERMI">      0.00000000</i>
  </separator>
  <separator name="writing" >
   <i type="int" name="NWRITE">     2</i>
   <i type="logical" name="LWAVE"> F  </i>
   <i type="logical" name="LCHARG"> F  </i>
   <i type="logical" name="LPARD"> F  </i>
   <i type="logical" name="LVTOT"> F  </i>
   <i type="logical" name="LELF"> F  </i>
   <i type="logical" name="LOPTICS"> F  </i>
   <v name="STM">      0.00000000      0.00000000      0.00000000      0.00000000      0.00000000</v>
  </separator>
  <separator name="performance" >
   <i type="int" name="NPAR">    12</i>
   <i type="int" name="NSIM">     4</i>
   <i type="int" name="NBLK">    32</i>
   <i type="logical" name="LPLANE"> T  </i>
   <i type="logical" name="LSCALAPACK"> F  </i>
   <i type="logical" name="LSCAAWARE"> F  </i>
   <i type="logical" name="LSCALU"> F  </i>
   <i type="logical" name="LASYNC"> F  </i>
  </separator>
  <separator name="miscellaneous" >
   <i type="int" name="IDIOT">     3</i>
   <i type="logical" name="LMUSIC"> F  </i>
   <v name="POMASS">     26.98200000     24.30500000</v>
   <i type="logical" name="LCORR"> T  </i>
  </separator>
  <i type="logical" name="LREAL_COMPAT"> F  </i>
  <i type="logical" name="GGA_COMPAT"> T  </i>
  <i type="logical" name="LBERRY"> F  </i>
  <i type="int" name="ICORELEVEL">     0</i>
  <i type="logical" name="LDAU"> F  </i>
  <i type="int" name="I_CONSTRAINED_M">     0</i>
  <separator name="electronic exchange-correlation" >
   <i type="string" name="GGA">--</i>
   <i type="int" name="VOSKOWN">     0</i>
   <i type="logical" name="LHFCALC"> F  </i>
   <i type="logical" name="LHFONE"> F  </i>
   <i type="logical" name="LRHFCALC"> F  </i>
   <i type="logical" name="LTHOMAS"> F  </i>
   <i type="logical" name="LMODELHF"> F  </i>
   <i name="ENCUTFOCK">      0.00000000</i>
   <i name="ENCUT4O">     -1.00000000</i>
   <i type="int" name="EXXOEP">     0</i>
   <i type="int" name="FOURORBIT">     0</i>
   <i name="AEXX">      0.00000000</i>
   <i name="HFALPHA">      0.00000000</i>
   <i name="ALDAX">      1.00000000</i>
   <i name="AGGAX">      1.00000000</i>
   <i name="ALDAC">      1.00000000</i>
   <i name="AGGAC">      1.00000000</i>
   <i type="int" name="NKREDX">     1</i>
   <i type="int" name="NKREDY">     1</i>
   <i type="int" name="NKREDZ">     1</i>
   <i type="logical" name="SHIFTRED"> F  </i>
   <i type="logical" name="ODDONLY"> F  </i>
   <i type="logical" name="EVENONLY"> F  </i>
   <i type="int" name="LMAXFOCK">     0</i>
   <i type="int" name="NMAXFOCKAE">     0</i>
   <i name="HFSCREEN">      0.00000000</i>
   <i name="HFSCREENC">      0.00000000</i>
  </separator>
  <separator name="model GW" >
   <i type="int" name="MODEL_GW">     0</i>
   <i name="MODEL_EPS0">     10.23670678</i>
   <i name="MODEL_ALPHA">      1.00000000</i>
  </separator>
  <separator name="linear response parameters" >
   <i type="logical" name="LEPSILON"> F  </i>
   <i type="logical" name="LRPA"> F  </i>
   <i type="logical" name="LNABLA"> F  </i>
   <i type="logical" name="LVEL"> F  </i>
   <i type="int" name="KINTER">     0</i>
   <i name="CSHIFT">      0.10000000</i>
   <i name="OMEGAMAX">     -1.00000000</i>
  </separator>
  <separator name="orbital magnetization" >
   <i type="logical" name="ORBITALMAG"> F  </i>
   <i type="logical" name="LMAGBLOCH"> F  </i>
   <i type="logical" name="LCHIMAG"> F  </i>
   <i type="logical" name="LGAUGE"> T  </i>
   <i type="int" name="MAGATOM">     0</i>
   <v name="MAGDIPOL">      0.00000000      0.00000000      0.00000000</v>
   <v name="AVECCONST">      0.00000000      0.00000000      0.00000000</v>
  </separator>
  <separator name="response functions" >
   <i type="logical" name="LRPA"> T  </i>
   <i type="logical" name="LTCTE"> F  </i>
   <i type="logical" name="LTETE"> F  </i>
   <i type="logical" name="L2ORDER"> F  </i>
   <i type="logical" name="LGWLF"> F  </i>
   <i name="ENCUTGW">    200.00000000</i>
   <i name="ENCUTGWSOFT">     -2.00000000</i>
   <i name="ENCUTLF">     -1.00000000</i>
   <i type="int" name="LMAXMP2">    -1</i>
   <i name="SCISSOR">      0.00000000</i>
   <i type="int" name="NOMEGA">     0</i>
   <i type="int" name="NOMEGAR">     0</i>
   <i type="int" name="NBANDSGW">    -1</i>
   <i type="int" name="NBANDSLF">    -1</i>
   <i type="int" name="NELM">     1</i>
   <i type="int" name="DIM">     3</i>
   <i type="int" name="ANTIRES">     0</i>
   <i type="logical" name="LUSEW"> F  </i>
   <i name="OMEGAMAX">    -30.00000000</i>
   <i name="OMEGATL">   -200.00000000</i>
   <i type="int" name="OMEGAGRID">     0</i>
   <i name="CSHIFT">     -0.10000000</i>
   <i type="logical" name="SELFENERGY"> F  </i>
   <i type="logical" name="LSPECTRAL"> F  </i>
   <i type="logical" name="ODDONLYGW"> F  </i>
   <i type="logical" name="EVENONLYGW"> F  </i>
   <i type="int" name="NKREDLFX">     1</i>
   <i type="int" name="NKREDLFY">     1</i>
   <i type="int" name="NKREDLFZ">     1</i>
   <i type="int" name="MAXMEM">  1024</i>
   <i type="int" name="TELESCOPE">     0</i>
  </separator>
 </parameters>
 <atominfo>
  <atoms>      31 </atoms>
  <types>       2 </types>
  <array name="atoms" >
   <dimension dim="1">ion</dimension>
   <field type="string">element</field>
   <field type="int">atomtype</field>
   <set>
    <rc><c>Al</c><c>   1</c></rc>
    <rc><c>Al</c><c>   1</c></rc>
    <rc><c>Al</c><c>   1</c></rc>
    <rc><c>Al</c><c>   1</c></rc>
    <rc><c>Al</c><c>   1</c></rc>
    <rc><c>Al</c><c>   1</c></rc>
    <rc><c>Al</c><c>   1</c></rc>
    <rc><c>Al</c><c>   1</c></rc>
    <rc><c>Al</c><c>   1</c></rc>
    <rc><c>Al</c><c>   1</c></rc>
    <rc><c>Al</c><c>   1</c></rc>
    <rc><c>Al</c><c>   1</c></rc>
    <rc><c>Al</c><c>   1</c></rc>
    <rc><c>Al</c><c>   1</c></rc>
    <rc><c>Al</c><c>   1</c></rc>
    <rc><c>Al</c><c>   1</c></rc>
    <rc><c>Al</c><c>   1</c></rc>
    <rc><c>Al</c><c>   1</c></rc>
    <rc><c>Al</c><c>   1</c></rc>
    <rc><c>Al</c><c>   1</c></rc>
    <rc><c>Al</c><c>   1</c></rc>
    <rc><c>Al</c><c>   1</c></rc>
    <rc><c>Al</c><c>   1</c></rc>
    <rc><c>Al</c><c>   1</c></rc>
    <rc><c>Al</c><c>   1</c></rc>
    <rc><c>Al</c><c>   1</c></rc>
    <rc><c>Al</c><c>   1</c></rc>
    <rc><c>Al</c><c>   1</c></rc>
    <rc><c>Al</c><c>   1</c></rc>
    <rc><c>Al</c><c>   1</c></rc>
    <rc><c>Mg</c><c>   2</c></rc>
   </set>
  </array>
  <array name="atomtypes" >
   <dimension dim="1">type</dimension>
   <field type="int">atomspertype</field>
   <field type="string">element</field>
   <field>mass</field>
   <field>valence</field>
   <field type="string">pseudopotential</field>
   <set>
    <rc><c>  30</c><c>Al</c><c>     26.98200000</c><c>      3.00000000</c><c> PAW_PBE Al 04Jan2001                   </c></rc>
    <rc><c>   1</c><c>Mg</c><c>     24.30500000</c><c>      2.00000000</c><c> PAW_PBE Mg 05Jan2001                   </c></rc>
   </set>
  </array>
 </atominfo>
 <structure name="initialpos" >
  <crystal>
   <varray name="basis" >
    <v>       8.08705200       0.00000000       0.00000000 </v>
    <v>       0.00000000       8.08705200       0.00000000 </v>
    <v>       0.00000000       0.00000000       8.08705200 </v>
   </varray>
   <i name="volume">    528.89651690 </i>
   <varray name="rec_basis" >
    <v>       0.12365445       0.00000000       0.00000000 </v>
    <v>       0.00000000       0.12365445       0.00000000 </v>
    <v>       0.00000000       0.00000000       0.12365445 </v>
   </varray>
  </crystal>
  <varray name="positions" >
   <v>       0.00090600       0.00000000       0.00090600 </v>
   <v>       0.24684900       0.00000000       0.24684900 </v>
   <v>       0.24947500       0.25556300       0.00486800 </v>
   <v>       0.00486800       0.25556300       0.24947500 </v>
   <v>       0.50022800       0.00000000       0.98624300 </v>
   <v>       0.76375700       0.00000000       0.24977300 </v>
   <v>       0.75355500       0.24728000       0.99644600 </v>
   <v>       0.51143300       0.22809400       0.23856800 </v>
   <v>       0.99998300       0.50000000       0.99998300 </v>
   <v>       0.24947500       0.74443700       0.00486800 </v>
   <v>       0.00486800       0.74443700       0.24947500 </v>
   <v>       0.49876600       0.50000000       0.00318600 </v>
   <v>       0.74681300       0.50000000       0.25123200 </v>
   <v>       0.75355500       0.75272100       0.99644600 </v>
   <v>       0.51143300       0.77190600       0.23856800 </v>
   <v>       0.98624300       0.00000000       0.50022800 </v>
   <v>       0.24977300       0.00000000       0.76375700 </v>
   <v>       0.23856800       0.22809400       0.51143300 </v>
   <v>       0.99644600       0.24728000       0.75355500 </v>
   <v>       0.50315100       0.00000000       0.50315100 </v>
   <v>       0.74909400       0.00000000       0.74909400 </v>
   <v>       0.74513100       0.25556300       0.50052600 </v>
   <v>       0.50052600       0.25556300       0.74513100 </v>
   <v>       0.00318600       0.50000000       0.49876600 </v>
   <v>       0.25123200       0.50000000       0.74681300 </v>
   <v>       0.23856800       0.77190600       0.51143300 </v>
   <v>       0.99644600       0.75272100       0.75355500 </v>
   <v>       0.75001800       0.50000000       0.75001800 </v>
   <v>       0.74513100       0.74443700       0.50052600 </v>
   <v>       0.50052600       0.74443700       0.74513100 </v>
   <v>       0.37500000       0.50000000       0.37500000 </v>
  </varray>
 </structure>
 <calculation>
  <scstep>
   <time name="diag">    0.31    0.31</time>
   <time name="diis">    0.70    0.70</time>
   <time name="orth">    0.02    0.02</time>
   <time name="total">    1.20    1.20</time>
   <energy>
    <i name="alphaZ">     -7.38313139 </i>
    <i name="ewald">  -2176.46779687 </i>
    <i name="hartreedc">    -27.65180422 </i>
    <i name="XCdc">   -796.31441840 </i>
    <i name="pawpsdc">   1078.21717227 </i>
    <i name="pawaedc">   -108.50372521 </i>
    <i name="eentropy">      0.02127342 </i>
    <i name="bandstr">    633.44425187 </i>
    <i name="atom">   1629.13144109 </i>
    <i name="e_fr_energy">    224.49326257 </i>
    <i name="e_wo_entrp">    224.47198915 </i>
    <i name="e_0_energy">    224.48617143 </i>
   </energy>
  </scstep>
  <scstep>
   <time name="diag">    0.30    0.30</time>
   <time name="diis">    0.69    0.69</time>
   <time name="orth">    0.02    0.02</time>
   <time name="total">    1.02    1.02</time>
   <energy>
    <i name="e_fr_energy">    -39.30746538 </i>
    <i name="e_wo_entrp">    -39.30336498 </i>
    <i name="e_0_energy">    -39.30609858 </i>
   </energy>
  </scstep>
  <scstep>
   <time name="diag">    0.30    0.30</time>
   <time name="diis">    0.70    0.70</time>
   <time name="orth">    0.02    0.02</time>
   <time name="total">    1.02    1.04</time>
   <energy>
    <i name="e_fr_energy">    -94.39734983 </i>
    <i name="e_wo_entrp">    -94.37758322 </i>
    <i name="e_0_energy">    -94.39076096 </i>
   </energy>
  </scstep>
  <scstep>
   <time name="diag">    0.30    0.30</time>
   <time name="diis">    0.70    0.70</time>
   <time name="orth">    0.02    0.02</time>
   <time name="total">    1.02    1.02</time>
   <energy>
    <i name="e_fr_energy">   -106.74992151 </i>
    <i name="e_wo_entrp">   -106.68137572 </i>
    <i name="e_0_energy">   -106.72707291 </i>
   </energy>
  </scstep>
  <scstep>
   <time name="diag">    0.30    0.30</time>
   <time name="diis">    0.69    0.70</time>
   <time name="orth">    0.02    0.02</time>
   <time name="total">    1.02    1.02</time>
   <energy>
    <i name="e_fr_energy">   -111.11668680 </i>
    <i name="e_wo_entrp">   -111.09832799 </i>
    <i name="e_0_energy">   -111.11056719 </i>
   </energy>
  </scstep>
  <scstep>
   <time name="diag">    0.30    0.30</time>
   <time name="diis">    0.69    0.69</time>
   <time name="orth">    0.02    0.02</time>
   <time name="total">    1.02    1.02</time>
   <energy>
    <i name="e_fr_energy">   -112.55601791 </i>
    <i name="e_wo_entrp">   -112.55604306 </i>
    <i name="e_0_energy">   -112.55602629 </i>
   </energy>
  </scstep>
  <scstep>
   <time name="diag">    0.30    0.30</time>
   <time name="diis">    0.70    0.70</time>
   <time name="orth">    0.02    0.02</time>
   <time name="total">    1.02    1.02</time>
   <energy>
    <i name="e_fr_energy">   -112.99390704 </i>
    <i name="e_wo_entrp">   -112.99583851 </i>
    <i name="e_0_energy">   -112.99455087 </i>
   </energy>
  </scstep>
  <scstep>
   <time name="diag">    0.30    0.30</time>
   <time name="diis">    0.69    0.69</time>
   <time name="orth">    0.02    0.02</time>
   <time name="total">    1.02    1.02</time>
   <energy>
    <i name="e_fr_energy">   -113.14783402 </i>
    <i name="e_wo_entrp">   -113.14640865 </i>
    <i name="e_0_energy">   -113.14735889 </i>
   </energy>
  </scstep>
  <scstep>
   <time name="diag">    0.30    0.30</time>
   <time name="diis">    1.66    1.66</time>
   <time name="orth">    0.02    0.02</time>
   <time name="total">    1.98    1.98</time>
   <energy>
    <i name="e_fr_energy">   -113.23132058 </i>
    <i name="e_wo_entrp">   -113.22567507 </i>
    <i name="e_0_energy">   -113.22943875 </i>
   </energy>
  </scstep>
  <scstep>
   <time name="diag">    0.30    0.30</time>
   <time name="diis">    1.54    1.54</time>
   <time name="orth">    0.02    0.02</time>
   <time name="total">    1.86    1.86</time>
   <energy>
    <i name="e_fr_energy">   -113.24228075 </i>
    <i name="e_wo_entrp">   -113.23537808 </i>
    <i name="e_0_energy">   -113.23997986 </i>
   </energy>
  </scstep>
  <scstep>
   <time name="diag">    0.30    0.30</time>
   <time name="diis">    1.32    1.32</time>
   <time name="orth">    0.02    0.02</time>
   <time name="total">    1.64    1.64</time>
   <energy>
    <i name="e_fr_energy">   -113.24275921 </i>
    <i name="e_wo_entrp">   -113.23585108 </i>
    <i name="e_0_energy">   -113.24045650 </i>
   </energy>
  </scstep>
  <scstep>
   <time name="diag">    0.30    0.30</time>
   <time name="diis">    1.13    1.13</time>
   <time name="orth">    0.02    0.02</time>
   <time name="total">    1.64    1.64</time>
   <energy>
    <i name="e_fr_energy">   -113.24277856 </i>
    <i name="e_wo_entrp">   -113.23587138 </i>
    <i name="e_0_energy">   -113.24047616 </i>
   </energy>
  </scstep>
  <scstep>
   <time name="diag">    0.30    0.30</time>
   <time name="diis">    1.37    1.37</time>
   <time name="orth">    0.02    0.02</time>
   <time name="total">    2.04    2.04</time>
   <energy>
    <i name="e_fr_energy">   -112.41623847 </i>
    <i name="e_wo_entrp">   -112.41278186 </i>
    <i name="e_0_energy">   -112.41508627 </i>
   </energy>
  </scstep>
  <scstep>
   <time name="diag">    0.30    0.30</time>
   <time name="diis">    1.45    1.45</time>
   <time name="orth">    0.02    0.02</time>
   <time name="total">    2.12    2.12</time>
   <energy>
    <i name="e_fr_energy">   -112.17733309 </i>
    <i name="e_wo_entrp">   -112.17207053 </i>
    <i name="e_0_energy">   -112.17557891 </i>
   </energy>
  </scstep>
  <scstep>
   <time name="diag">    0.30    0.30</time>
   <time name="diis">    1.43    1.44</time>
   <time name="orth">    0.02    0.02</time>
   <time name="total">    2.10    2.12</time>
   <energy>
    <i name="e_fr_energy">   -112.11087445 </i>
    <i name="e_wo_entrp">   -112.10498638 </i>
    <i name="e_0_energy">   -112.10891176 </i>
   </energy>
  </scstep>
  <scstep>
   <time name="diag">    0.30    0.30</time>
   <time name="diis">    1.48    1.48</time>
   <time name="orth">    0.02    0.02</time>
   <time name="total">    2.15    2.15</time>
   <energy>
    <i name="e_fr_energy">   -112.10888713 </i>
    <i name="e_wo_entrp">   -112.10319410 </i>
    <i name="e_0_energy">   -112.10698946 </i>
   </energy>
  </scstep>
  <scstep>
   <time name="diag">    0.30    0.30</time>
   <time name="diis">    1.37    1.37</time>
   <time name="orth">    0.02    0.02</time>
   <time name="total">    1.85    1.85</time>
   <energy>
    <i name="alphaZ">     -7.38313139 </i>
    <i name="ewald">  -2176.46779687 </i>
    <i name="hartreedc">    -32.04043657 </i>
    <i name="XCdc">   -792.80760819 </i>
    <i name="pawpsdc">   1084.39295802 </i>
    <i name="pawaedc">   -115.16548324 </i>
    <i name="eentropy">     -0.00543148 </i>
    <i name="bandstr">    298.23666082 </i>
    <i name="atom">   1629.13144109 </i>
    <i name="e_fr_energy">   -112.10882781 </i>
    <i name="e_wo_entrp">   -112.10339633 </i>
    <i name="e_0_energy">   -112.10701732 </i>
   </energy>
  </scstep>
  <structure>
   <crystal>
    <varray name="basis" >
     <v>       8.08705200       0.00000000       0.00000000 </v>
     <v>       0.00000000       8.08705200       0.00000000 </v>
     <v>       0.00000000       0.00000000       8.08705200 </v>
    </varray>
    <i name="volume">    528.89651690 </i>
    <varray name="rec_basis" >
     <v>       0.12365445       0.00000000       0.00000000 </v>
     <v>       0.00000000       0.12365445       0.00000000 </v>
     <v>       0.00000000       0.00000000       0.12365445 </v>
    </varray>
   </crystal>
   <varray name="positions" >
    <v>       0.00090600       0.00000000       0.00090600 </v>
    <v>       0.24684900       0.00000000       0.24684900 </v>
    <v>       0.24947500       0.25556300       0.00486800 </v>
    <v>       0.00486800       0.25556300       0.24947500 </v>
    <v>       0.50022800       0.00000000       0.98624300 </v>
    <v>       0.76375700       0.00000000       0.24977300 </v>
    <v>       0.75355500       0.24728000       0.99644600 </v>
    <v>       0.51143300       0.22809400       0.23856800 </v>
    <v>       0.99998300       0.50000000       0.99998300 </v>
    <v>       0.24947500       0.74443700       0.00486800 </v>
    <v>       0.00486800       0.74443700       0.24947500 </v>
    <v>       0.49876600       0.50000000       0.00318600 </v>
    <v>       0.74681300       0.50000000       0.25123200 </v>
    <v>       0.75355500       0.75272100       0.99644600 </v>
    <v>       0.51143300       0.77190600       0.23856800 </v>
    <v>       0.98624300       0.00000000       0.50022800 </v>
    <v>       0.24977300       0.00000000       0.76375700 </v>
    <v>       0.23856800       0.22809400       0.51143300 </v>
    <v>       0.99644600       0.24728000       0.75355500 </v>
    <v>       0.50315100       0.00000000       0.50315100 </v>
    <v>       0.74909400       0.00000000       0.74909400 </v>
    <v>       0.74513100       0.25556300       0.50052600 </v>
    <v>       0.50052600       0.25556300       0.74513100 </v>
    <v>       0.00318600       0.50000000       0.49876600 </v>
    <v>       0.25123200       0.50000000       0.74681300 </v>
    <v>       0.23856800       0.77190600       0.51143300 </v>
    <v>       0.99644600       0.75272100       0.75355500 </v>
    <v>       0.75001800       0.50000000       0.75001800 </v>
    <v>       0.74513100       0.74443700       0.50052600 </v>
    <v>       0.50052600       0.74443700       0.74513100 </v>
    <v>       0.37500000       0.50000000       0.37500000 </v>
   </varray>
  </structure>
  <varray name="forces" >
   <v>      -0.01639727       0.00000000      -0.01639727 </v>
   <v>       0.02069379       0.00000000       0.02069379 </v>
   <v>       0.04945620       0.07031328       0.04266613 </v>
   <v>       0.04266613       0.07031328       0.04945620 </v>
   <v>       0.02621616       0.00000000       0.04881649 </v>
   <v>      -0.04881649       0.00000000      -0.02621616 </v>
   <v>      -0.01417532       0.05496483       0.01417532 </v>
   <v>       0.00044355      -0.02482964      -0.00044355 </v>
   <v>       0.02914214       0.00000000       0.02914214 </v>
   <v>       0.04945620      -0.07031328       0.04266613 </v>
   <v>       0.04266613      -0.07031328       0.04945620 </v>
   <v>      -0.01760964       0.00000000       0.05123567 </v>
   <v>      -0.05123567       0.00000000       0.01760964 </v>
   <v>      -0.01417532      -0.05496483       0.01417532 </v>
   <v>       0.00044355       0.02482964      -0.00044355 </v>
   <v>       0.04881649       0.00000000       0.02621616 </v>
   <v>      -0.02621616       0.00000000      -0.04881649 </v>
   <v>      -0.00044355      -0.02482964       0.00044355 </v>
   <v>       0.01417532       0.05496483      -0.01417532 </v>
   <v>      -0.02069379       0.00000000      -0.02069379 </v>
   <v>       0.01639727       0.00000000       0.01639727 </v>
   <v>      -0.04266613       0.07031328      -0.04945620 </v>
   <v>      -0.04945620       0.07031328      -0.04266613 </v>
   <v>       0.05123567       0.00000000      -0.01760964 </v>
   <v>       0.01760964       0.00000000      -0.05123567 </v>
   <v>      -0.00044355       0.02482964       0.00044355 </v>
   <v>       0.01417532      -0.05496483      -0.01417532 </v>
   <v>      -0.02914214       0.00000000      -0.02914214 </v>
   <v>      -0.04266613      -0.07031328      -0.04945620 </v>
   <v>      -0.04945620      -0.07031328      -0.04266613 </v>
   <v>       0.00000000       0.00000000       0.00000000 </v>
  </varray>
  <varray name="stress" >
   <v>      -2.92690349       0.00000000       2.58688367 </v>
   <v>       0.00000000      18.39857111       0.00000000 </v>
   <v>       2.58688367       0.00000000      -2.92690349 </v>
  </varray>
  <energy>
   <i name="e_fr_energy">   -112.10882781 </i>
   <i name="e_wo_entrp">   -112.10701732 </i>
   <i name="e_0_energy">     -0.00543148 </i>
  </energy>
  <time name="totalsc">   27.82   27.89</time>
  <eigenvalues>
   <array>
    <dimension dim="1">band</dimension>
    <dimension dim="2">kpoint</dimension>
    <dimension dim="3">spin</dimension>
    <field>eigene</field>
    <field>occ</field>
    <set>
     <set comment="spin 1">
      <set comment="kpoint 1">
       <r>   -2.9832    1.0000 </r>
       <r>   -1.9605    1.0000 </r>
       <r>   -1.8790    1.0000 </r>
       <r>   -1.6418    1.0000 </r>
       <r>   -0.8122    1.0000 </r>
       <r>   -0.7610    1.0000 </r>
       <r>   -0.3541    1.0000 </r>
       <r>    0.2571    1.0000 </r>
       <r>    0.3214    1.0000 </r>
       <r>    0.5327    1.0000 </r>
       <r>    0.6160    1.0000 </r>
       <r>    1.3445    1.0000 </r>
       <r>    1.3634    1.0000 </r>
       <r>    1.4058    1.0000 </r>
       <r>    1.5398    1.0000 </r>
       <r>    1.8138    1.0000 </r>
       <r>    1.9404    1.0000 </r>
       <r>    2.7007    1.0000 </r>
       <r>    2.7084    1.0000 </r>
       <r>    2.9043    1.0000 </r>
       <r>    3.5302    1.0000 </r>
       <r>    3.5915    1.0000 </r>
       <r>    3.6288    1.0000 </r>
       <r>    3.6773    1.0000 </r>
       <r>    3.7362    1.0000 </r>
       <r>    4.0507    1.0000 </r>
       <r>    4.5307    1.0000 </r>
       <r>    4.5579    1.0000 </r>
       <r>    4.6449    1.0000 </r>
       <r>    4.8073    1.0000 </r>
       <r>    4.8647    1.0000 </r>
       <r>    4.8705    1.0000 </r>
       <r>    4.9292    1.0000 </r>
       <r>    5.1106    1.0000 </r>
       <r>    5.2062    1.0000 </r>
       <r>    5.7266    1.0000 </r>
       <r>    5.8928    1.0000 </r>
       <r>    6.3558    1.0000 </r>
       <r>    6.7098    1.0000 </r>
       <r>    6.7754    1.0000 </r>
       <r>    6.7864    1.0000 </r>
       <r>    6.9445    1.0000 </r>
       <r>    6.9892    1.0000 </r>
       <r>    7.0941    1.0000 </r>
       <r>    7.1499    1.0000 </r>
       <r>    7.7893    0.8198 </r>
       <r>    7.8875    0.4356 </r>
       <r>    8.0061    0.0513 </r>
       <r>    8.0363    0.0049 </r>
       <r>    8.1622   -0.0298 </r>
       <r>    8.1987   -0.0216 </r>
       <r>    8.2074   -0.0196 </r>
       <r>    8.3736   -0.0011 </r>
       <r>    8.5365    0.0000 </r>
       <r>    9.0566    0.0000 </r>
       <r>    9.1370    0.0000 </r>
       <r>    9.1879    0.0000 </r>
       <r>    9.3542    0.0000 </r>
       <r>    9.3717    0.0000 </r>
       <r>    9.5129    0.0000 </r>
       <r>    9.9705    0.0000 </r>
       <r>    9.9848    0.0000 </r>
       <r>   10.0640    0.0000 </r>
       <r>   10.1556    0.0000 </r>
       <r>   10.2033    0.0000 </r>
       <r>   10.2110    0.0000 </r>
       <r>   10.5179    0.0000 </r>
       <r>   10.6485    0.0000 </r>
       <r>   10.7764    0.0000 </r>
       <r>   10.9340    0.0000 </r>
       <r>   11.0782    0.0000 </r>
       <r>   11.2220    0.0000 </r>
      </set>
      <set comment="kpoint 2">
       <r>   -2.9862    1.0000 </r>
       <r>   -1.9508    1.0000 </r>
       <r>   -1.8158    1.0000 </r>
       <r>   -1.7222    1.0000 </r>
       <r>   -0.8256    1.0000 </r>
       <r>   -0.6097    1.0000 </r>
       <r>   -0.5486    1.0000 </r>
       <r>    0.2614    1.0000 </r>
       <r>    0.3983    1.0000 </r>
       <r>    0.4416    1.0000 </r>
       <r>    0.6991    1.0000 </r>
       <r>    1.3931    1.0000 </r>
       <r>    1.4280    1.0000 </r>
       <r>    1.4930    1.0000 </r>
       <r>    1.4930    1.0000 </r>
       <r>    1.7684    1.0000 </r>
       <r>    1.8425    1.0000 </r>
       <r>    2.6213    1.0000 </r>
       <r>    2.7731    1.0000 </r>
       <r>    2.8394    1.0000 </r>
       <r>    3.5376    1.0000 </r>
       <r>    3.5880    1.0000 </r>
       <r>    3.6341    1.0000 </r>
       <r>    3.6811    1.0000 </r>
       <r>    3.8115    1.0000 </r>
       <r>    3.9635    1.0000 </r>
       <r>    4.5976    1.0000 </r>
       <r>    4.6513    1.0000 </r>
       <r>    4.6781    1.0000 </r>
       <r>    4.6987    1.0000 </r>
       <r>    4.7165    1.0000 </r>
       <r>    4.9494    1.0000 </r>
       <r>    4.9733    1.0000 </r>
       <r>    5.0595    1.0000 </r>
       <r>    5.1748    1.0000 </r>
       <r>    5.7461    1.0000 </r>
       <r>    6.1172    1.0000 </r>
       <r>    6.1779    1.0000 </r>
       <r>    6.7060    1.0000 </r>
       <r>    6.7467    1.0000 </r>
       <r>    6.9173    1.0000 </r>
       <r>    7.0237    1.0000 </r>
       <r>    7.0333    1.0000 </r>
       <r>    7.0703    1.0000 </r>
       <r>    7.1414    1.0000 </r>
       <r>    7.8377    0.6436 </r>
       <r>    7.9568    0.1751 </r>
       <r>    7.9945    0.0749 </r>
       <r>    8.0670   -0.0222 </r>
       <r>    8.1491   -0.0323 </r>
       <r>    8.1719   -0.0277 </r>
       <r>    8.1879   -0.0241 </r>
       <r>    8.2169   -0.0175 </r>
       <r>    8.2639   -0.0091 </r>
       <r>    9.0950    0.0000 </r>
       <r>    9.1467    0.0000 </r>
       <r>    9.2730    0.0000 </r>
       <r>    9.3780    0.0000 </r>
       <r>    9.4079    0.0000 </r>
       <r>    9.4876    0.0000 </r>
       <r>    9.9683    0.0000 </r>
       <r>    9.9794    0.0000 </r>
       <r>   10.0422    0.0000 </r>
       <r>   10.0515    0.0000 </r>
       <r>   10.1422    0.0000 </r>
       <r>   10.2311    0.0000 </r>
       <r>   10.5554    0.0000 </r>
       <r>   10.5656    0.0000 </r>
       <r>   10.6812    0.0000 </r>
       <r>   10.9774    0.0000 </r>
       <r>   11.2556    0.0000 </r>
       <r>   11.3648    0.0000 </r>
      </set>
     </set>
    </set>
   </array>
  </eigenvalues>
  <separator name="orbital magnetization" >
   <v name="MAGDIPOLOUT">      0.00000000      0.00000000      0.00000000</v>
  </separator>
  <dos>
   <i name="efermi">      7.87224513 </i>
   <total>
    <array>
     <dimension dim="1">gridpoints</dimension>
     <dimension dim="2">spin</dimension>
     <field>energy</field>
     <field>total</field>
     <field>integrated</field>
     <set>
      <set comment="spin 1">
       <r>  -4.9862   0.0000   0.0000 </r>
       <r>  -4.9250   0.0000   0.0000 </r>
       <r>  -4.8638   0.0000   0.0000 </r>
       <r>  -4.8027   0.0000   0.0000 </r>
       <r>  -4.7415   0.0000   0.0000 </r>
       <r>  -4.6803   0.0000   0.0000 </r>
       <r>  -4.6191   0.0000   0.0000 </r>
       <r>  -4.5580   0.0000   0.0000 </r>
       <r>  -4.4968   0.0000   0.0000 </r>
       <r>  -4.4356   0.0000   0.0000 </r>
       <r>  -4.3745   0.0000   0.0000 </r>
       <r>  -4.3133   0.0000   0.0000 </r>
       <r>  -4.2521   0.0000   0.0000 </r>
       <r>  -4.1910   0.0000   0.0000 </r>
       <r>  -4.1298   0.0000   0.0000 </r>
       <r>  -4.0686   0.0000   0.0000 </r>
       <r>  -4.0074   0.0000   0.0000 </r>
       <r>  -3.9463   0.0000   0.0000 </r>
       <r>  -3.8851   0.0000   0.0000 </r>
       <r>  -3.8239   0.0000   0.0000 </r>
       <r>  -3.7628   0.0000   0.0000 </r>
       <r>  -3.7016  -0.0001   0.0000 </r>
       <r>  -3.6404  -0.0005   0.0000 </r>
       <r>  -3.5793  -0.0030  -0.0002 </r>
       <r>  -3.5181  -0.0138  -0.0011 </r>
       <r>  -3.4569  -0.0515  -0.0042 </r>
       <r>  -3.3957  -0.1489  -0.0133 </r>
       <r>  -3.3346  -0.3200  -0.0329 </r>
       <r>  -3.2734  -0.4455  -0.0601 </r>
       <r>  -3.2122  -0.1329  -0.0683 </r>
       <r>  -3.1511   1.1899   0.0045 </r>
       <r>  -3.0899   3.7174   0.2319 </r>
       <r>  -3.0287   6.6249   0.6371 </r>
       <r>  -2.9676   8.2916   1.1443 </r>
       <r>  -2.9064   7.6062   1.6096 </r>
       <r>  -2.8452   5.0386   1.9178 </r>
       <r>  -2.7840   2.1751   2.0509 </r>
       <r>  -2.7229   0.2956   2.0690 </r>
       <r>  -2.6617  -0.3957   2.0448 </r>
       <r>  -2.6005  -0.3976   2.0204 </r>
       <r>  -2.5394  -0.2215   2.0069 </r>
       <r>  -2.4782  -0.1043   2.0005 </r>
       <r>  -2.4170  -0.0965   1.9946 </r>
       <r>  -2.3559  -0.2109   1.9817 </r>
       <r>  -2.2947  -0.4486   1.9543 </r>
       <r>  -2.2335  -0.6696   1.9133 </r>
       <r>  -2.1723  -0.4015   1.8887 </r>
       <r>  -2.1112   1.1198   1.9572 </r>
       <r>  -2.0500   4.3983   2.2263 </r>
       <r>  -1.9888   8.9238   2.7721 </r>
       <r>  -1.9277  13.1349   3.5756 </r>
       <r>  -1.8665  15.4758   4.5223 </r>
       <r>  -1.8053  15.5237   5.4718 </r>
       <r>  -1.7442  13.9390   6.3245 </r>
       <r>  -1.6830  11.5012   7.0280 </r>
       <r>  -1.6218   8.5653   7.5520 </r>
       <r>  -1.5606   5.3973   7.8821 </r>
       <r>  -1.4995   2.5471   8.0379 </r>
       <r>  -1.4383   0.5993   8.0746 </r>
       <r>  -1.3771  -0.2957   8.0565 </r>
       <r>  -1.3160  -0.4724   8.0276 </r>
       <r>  -1.2548  -0.4110   8.0025 </r>
       <r>  -1.1936  -0.4369   7.9757 </r>
       <r>  -1.1325  -0.6036   7.9388 </r>
       <r>  -1.0713  -0.6114   7.9014 </r>
       <r>  -1.0101   0.2216   7.9150 </r>
       <r>  -0.9489   2.6021   8.0741 </r>
       <r>  -0.8878   6.4490   8.4686 </r>
       <r>  -0.8266  10.4397   9.1072 </r>
       <r>  -0.7654  12.8414   9.8927 </r>
       <r>  -0.7043  13.0071  10.6884 </r>
       <r>  -0.6431  11.7303  11.4059 </r>
       <r>  -0.5819  10.1035  12.0239 </r>
       <r>  -0.5208   8.5714  12.5482 </r>
       <r>  -0.4596   7.1641  12.9865 </r>
       <r>  -0.3984   5.9286  13.3491 </r>
       <r>  -0.3372   4.7982  13.6426 </r>
       <r>  -0.2761   3.5237  13.8582 </r>
       <r>  -0.2149   2.0400  13.9830 </r>
       <r>  -0.1537   0.6329  14.0217 </r>
       <r>  -0.0926  -0.3903  13.9978 </r>
       <r>  -0.0314  -0.9276  13.9411 </r>
       <r>   0.0298  -0.8094  13.8915 </r>
       <r>   0.0909   0.5058  13.9225 </r>
       <r>   0.1521   3.6036  14.1429 </r>
       <r>   0.2133   8.2664  14.6486 </r>
       <r>   0.2745  13.1014  15.4500 </r>
       <r>   0.3356  16.3545  16.4504 </r>
       <r>   0.3968  17.2116  17.5032 </r>
       <r>   0.4580  16.2307  18.4961 </r>
       <r>   0.5191  14.5756  19.3876 </r>
       <r>   0.5803  12.9672  20.1808 </r>
       <r>   0.6415  11.2968  20.8719 </r>
       <r>   0.7026   9.0809  21.4273 </r>
       <r>   0.7638   6.2149  21.8075 </r>
       <r>   0.8250   3.2537  22.0065 </r>
       <r>   0.8862   0.9494  22.0646 </r>
       <r>   0.9473  -0.4009  22.0401 </r>
       <r>   1.0085  -1.0831  21.9738 </r>
       <r>   1.0697  -1.4525  21.8850 </r>
       <r>   1.1308  -1.2332  21.8096 </r>
       <r>   1.1920   0.7394  21.8548 </r>
       <r>   1.2532   5.7939  22.2092 </r>
       <r>   1.3143  13.8546  23.0567 </r>
       <r>   1.3755  22.3930  24.4265 </r>
       <r>   1.4367  27.4633  26.1064 </r>
       <r>   1.4978  26.4915  27.7269 </r>
       <r>   1.5590  20.4256  28.9763 </r>
       <r>   1.6202  13.2193  29.7849 </r>
       <r>   1.6814   8.9885  30.3348 </r>
       <r>   1.7425   9.1271  30.8931 </r>
       <r>   1.8037  11.6801  31.6075 </r>
       <r>   1.8649  13.3557  32.4245 </r>
       <r>   1.9260  12.2159  33.1718 </r>
       <r>   1.9872   8.7060  33.7043 </r>
       <r>   2.0484   4.6275  33.9874 </r>
       <r>   2.1095   1.5273  34.0808 </r>
       <r>   2.1707  -0.1094  34.0741 </r>
       <r>   2.2319  -0.6683  34.0332 </r>
       <r>   2.2931  -0.7891  33.9850 </r>
       <r>   2.3542  -0.8416  33.9335 </r>
       <r>   2.4154  -0.6659  33.8927 </r>
       <r>   2.4766   0.3977  33.9171 </r>
       <r>   2.5377   3.0974  34.1065 </r>
       <r>   2.5989   7.5412  34.5678 </r>
       <r>   2.6601  12.6962  35.3445 </r>
       <r>   2.7212  16.7535  36.3693 </r>
       <r>   2.7824  18.2006  37.4826 </r>
       <r>   2.8436  16.6571  38.5015 </r>
       <r>   2.9048  12.8697  39.2888 </r>
       <r>   2.9659   8.1750  39.7888 </r>
       <r>   3.0271   3.9180  40.0285 </r>
       <r>   3.0883   0.9529  40.0868 </r>
       <r>   3.1494  -0.6481  40.0471 </r>
       <r>   3.2106  -1.3970  39.9617 </r>
       <r>   3.2718  -1.7067  39.8573 </r>
       <r>   3.3329  -1.1685  39.7858 </r>
       <r>   3.3941   1.5638  39.8815 </r>
       <r>   3.4553   7.8039  40.3588 </r>
       <r>   3.5165  17.1483  41.4078 </r>
       <r>   3.5776  26.6251  43.0364 </r>
       <r>   3.6388  32.0943  44.9996 </r>
       <r>   3.7000  31.1560  46.9055 </r>
       <r>   3.7611  24.9422  48.4312 </r>
       <r>   3.8223  17.1235  49.4786 </r>
       <r>   3.8835  11.1823  50.1626 </r>
       <r>   3.9446   8.3299  50.6722 </r>
       <r>   4.0058   7.4436  51.1275 </r>
       <r>   4.0670   6.6102  51.5318 </r>
       <r>   4.1282   4.7807  51.8243 </r>
       <r>   4.1893   2.2445  51.9616 </r>
       <r>   4.2505  -0.0536  51.9583 </r>
       <r>   4.3117  -1.2266  51.8833 </r>
       <r>   4.3728  -0.4679  51.8546 </r>
       <r>   4.4340   3.0708  52.0425 </r>
       <r>   4.4952   9.6930  52.6354 </r>
       <r>   4.5563  18.1685  53.7468 </r>
       <r>   4.6175  25.7166  55.3198 </r>
       <r>   4.6787  29.6867  57.1358 </r>
       <r>   4.7399  29.6357  58.9486 </r>
       <r>   4.8010  27.5212  60.6321 </r>
       <r>   4.8622  25.6040  62.1983 </r>
       <r>   4.9234  24.4653  63.6948 </r>
       <r>   4.9845  23.3082  65.1206 </r>
       <r>   5.0457  21.5304  66.4376 </r>
       <r>   5.1069  19.1899  67.6114 </r>
       <r>   5.1680  16.2557  68.6058 </r>
       <r>   5.2292  12.4059  69.3646 </r>
       <r>   5.2904   7.7939  69.8414 </r>
       <r>   5.3516   3.4010  70.0494 </r>
       <r>   5.4127   0.3230  70.0692 </r>
       <r>   5.4739  -0.9694  70.0099 </r>
       <r>   5.5351  -0.5213  69.9780 </r>
       <r>   5.5962   1.5034  70.0700 </r>
       <r>   5.6574   4.6610  70.3551 </r>
       <r>   5.7186   7.8472  70.8351 </r>
       <r>   5.7797   9.6480  71.4253 </r>
       <r>   5.8409   9.3665  71.9982 </r>
       <r>   5.9021   7.6185  72.4642 </r>
       <r>   5.9633   5.8735  72.8235 </r>
       <r>   6.0244   5.3905  73.1533 </r>
       <r>   6.0856   6.3324  73.5406 </r>
       <r>   6.1468   7.7142  74.0125 </r>
       <r>   6.2079   8.3229  74.5216 </r>
       <r>   6.2691   7.7114  74.9933 </r>
       <r>   6.3303   6.1952  75.3723 </r>
       <r>   6.3914   4.2106  75.6298 </r>
       <r>   6.4526   2.2520  75.7676 </r>
       <r>   6.5138   1.3967  75.8530 </r>
       <r>   6.5750   3.1403  76.0451 </r>
       <r>   6.6361   8.0207  76.5357 </r>
       <r>   6.6973  14.4293  77.4184 </r>
       <r>   6.7585  19.5092  78.6117 </r>
       <r>   6.8196  21.8166  79.9463 </r>
       <r>   6.8808  22.7363  81.3370 </r>
       <r>   6.9420  24.6028  82.8420 </r>
       <r>   7.0031  27.6124  84.5311 </r>
       <r>   7.0643  29.2525  86.3204 </r>
       <r>   7.1255  26.8144  87.9607 </r>
       <r>   7.1867  20.0810  89.1890 </r>
       <r>   7.2478  11.5493  89.8955 </r>
       <r>   7.3090   4.3688  90.1627 </r>
       <r>   7.3702   0.1811  90.1738 </r>
       <r>   7.4313  -1.3675  90.0901 </r>
       <r>   7.4925  -1.5556  89.9950 </r>
       <r>   7.5537  -1.2824  89.9166 </r>
       <r>   7.6148  -0.5216  89.8846 </r>
       <r>   7.6760   1.3591  89.9678 </r>
       <r>   7.7372   4.8308  90.2633 </r>
       <r>   7.7984   9.6406  90.8530 </r>
       <r>   7.8595  14.9751  91.7690 </r>
       <r>   7.9207  20.1693  93.0028 </r>
       <r>   7.9819  25.2040  94.5445 </r>
       <r>   8.0430  30.4107  96.4047 </r>
       <r>   8.1042  35.4338  98.5722 </r>
       <r>   8.1654  38.3964 100.9209 </r>
       <r>   8.2265  36.7691 103.1701 </r>
       <r>   8.2877  29.8670 104.9970 </r>
       <r>   8.3489  20.2157 106.2336 </r>
       <r>   8.4101  11.7350 106.9515 </r>
       <r>   8.4712   6.6482 107.3581 </r>
       <r>   8.5324   4.4373 107.6295 </r>
       <r>   8.5936   3.3143 107.8323 </r>
       <r>   8.6547   2.0653 107.9586 </r>
       <r>   8.7159   0.5849 107.9944 </r>
       <r>   8.7771  -0.6620 107.9539 </r>
       <r>   8.8382  -1.1049 107.8863 </r>
       <r>   8.8994  -0.0274 107.8846 </r>
       <r>   8.9606   3.3132 108.0873 </r>
       <r>   9.0218   8.8740 108.6301 </r>
       <r>   9.0829  15.1305 109.5557 </r>
       <r>   9.1441  19.8603 110.7705 </r>
       <r>   9.2053  22.0862 112.1215 </r>
       <r>   9.2664  22.8581 113.5198 </r>
       <r>   9.3276  23.6137 114.9642 </r>
       <r>   9.3888  24.1211 116.4397 </r>
       <r>   9.4499  22.6856 117.8274 </r>
       <r>   9.5111  18.2339 118.9427 </r>
       <r>   9.5723  11.6191 119.6535 </r>
       <r>   9.6335   4.9389 119.9556 </r>
       <r>   9.6946   0.1505 119.9648 </r>
       <r>   9.7558  -1.4401 119.8767 </r>
       <r>   9.8170   1.0908 119.9434 </r>
       <r>   9.8781   8.0437 120.4355 </r>
       <r>   9.9393  18.0532 121.5398 </r>
       <r>  10.0005  27.8473 123.2432 </r>
       <r>  10.0616  33.9388 125.3192 </r>
       <r>  10.1228  34.6599 127.4394 </r>
       <r>  10.1840  30.4168 129.3000 </r>
       <r>  10.2452  22.7713 130.6929 </r>
       <r>  10.3063  14.1315 131.5573 </r>
       <r>  10.3675   7.6541 132.0255 </r>
       <r>  10.4287   5.8952 132.3861 </r>
       <r>  10.4898   8.8947 132.9302 </r>
       <r>  10.5510  13.9157 133.7814 </r>
       <r>  10.6122  17.4366 134.8480 </r>
       <r>  10.6733  17.5795 135.9234 </r>
       <r>  10.7345  14.9600 136.8385 </r>
       <r>  10.7957  11.6926 137.5537 </r>
       <r>  10.8569   9.6826 138.1460 </r>
       <r>  10.9180   9.4277 138.7227 </r>
       <r>  10.9792  10.0537 139.3377 </r>
       <r>  11.0404  10.4738 139.9783 </r>
       <r>  11.1015  10.4945 140.6203 </r>
       <r>  11.1627  10.6556 141.2721 </r>
       <r>  11.2239  11.1285 141.9528 </r>
       <r>  11.2850  11.1959 142.6377 </r>
       <r>  11.3462   9.9681 143.2474 </r>
       <r>  11.4074   7.3669 143.6981 </r>
       <r>  11.4686   4.2408 143.9575 </r>
       <r>  11.5297   1.6495 144.0584 </r>
       <r>  11.5909   0.1445 144.0672 </r>
       <r>  11.6521  -0.3826 144.0438 </r>
       <r>  11.7132  -0.3726 144.0210 </r>
       <r>  11.7744  -0.2143 144.0079 </r>
       <r>  11.8356  -0.0903 144.0024 </r>
       <r>  11.8967  -0.0295 144.0006 </r>
       <r>  11.9579  -0.0077 144.0001 </r>
       <r>  12.0191  -0.0016 144.0000 </r>
       <r>  12.0803  -0.0003 144.0000 </r>
       <r>  12.1414   0.0000 144.0000 </r>
       <r>  12.2026   0.0000 144.0000 </r>
       <r>  12.2638   0.0000 144.0000 </r>
       <r>  12.3249   0.0000 144.0000 </r>
       <r>  12.3861   0.0000 144.0000 </r>
       <r>  12.4473   0.0000 144.0000 </r>
       <r>  12.5084   0.0000 144.0000 </r>
       <r>  12.5696   0.0000 144.0000 </r>
       <r>  12.6308   0.0000 144.0000 </r>
       <r>  12.6920   0.0000 144.0000 </r>
       <r>  12.7531   0.0000 144.0000 </r>
       <r>  12.8143   0.0000 144.0000 </r>
       <r>  12.8755   0.0000 144.0000 </r>
       <r>  12.9366   0.0000 144.0000 </r>
       <r>  12.9978   0.0000 144.0000 </r>
       <r>  13.0590   0.0000 144.0000 </r>
       <r>  13.1201   0.0000 144.0000 </r>
       <r>  13.1813   0.0000 144.0000 </r>
       <r>  13.2425   0.0000 144.0000 </r>
       <r>  13.3036   0.0000 144.0000 </r>
       <r>  13.3648   0.0000 144.0000 </r>
      </set>
     </set>
    </array>
   </total>
  </dos>
 </calculation>
 <structure name="finalpos" >
  <crystal>
   <varray name="basis" >
    <v>       8.08705200       0.00000000       0.00000000 </v>
    <v>       0.00000000       8.08705200       0.00000000 </v>
    <v>       0.00000000       0.00000000       8.08705200 </v>
   </varray>
   <i name="volume">    528.89651690 </i>
   <varray name="rec_basis" >
    <v>       0.12365445       0.00000000       0.00000000 </v>
    <v>       0.00000000       0.12365445       0.00000000 </v>
    <v>       0.00000000       0.00000000       0.12365445 </v>
   </varray>
  </crystal>
  <varray name="positions" >
   <v>       0.00090600       0.00000000       0.00090600 </v>
   <v>       0.24684900       0.00000000       0.24684900 </v>
   <v>       0.24947500       0.25556300       0.00486800 </v>
   <v>       0.00486800       0.25556300       0.24947500 </v>
   <v>       0.50022800       0.00000000       0.98624300 </v>
   <v>       0.76375700       0.00000000       0.24977300 </v>
   <v>       0.75355500       0.24728000       0.99644600 </v>
   <v>       0.51143300       0.22809400       0.23856800 </v>
   <v>       0.99998300       0.50000000       0.99998300 </v>
   <v>       0.24947500       0.74443700       0.00486800 </v>
   <v>       0.00486800       0.74443700       0.24947500 </v>
   <v>       0.49876600       0.50000000       0.00318600 </v>
   <v>       0.74681300       0.50000000       0.25123200 </v>
   <v>       0.75355500       0.75272100       0.99644600 </v>
   <v>       0.51143300       0.77190600       0.23856800 </v>
   <v>       0.98624300       0.00000000       0.50022800 </v>
   <v>       0.24977300       0.00000000       0.76375700 </v>
   <v>       0.23856800       0.22809400       0.51143300 </v>
   <v>       0.99644600       0.24728000       0.75355500 </v>
   <v>       0.50315100       0.00000000       0.50315100 </v>
   <v>       0.74909400       0.00000000       0.74909400 </v>
   <v>       0.74513100       0.25556300       0.50052600 </v>
   <v>       0.50052600       0.25556300       0.74513100 </v>
   <v>       0.00318600       0.50000000       0.49876600 </v>
   <v>       0.25123200       0.50000000       0.74681300 </v>
   <v>       0.23856800       0.77190600       0.51143300 </v>
   <v>       0.99644600       0.75272100       0.75355500 </v>
   <v>       0.75001800       0.50000000       0.75001800 </v>
   <v>       0.74513100       0.74443700       0.50052600 </v>
   <v>       0.50052600       0.74443700       0.74513100 </v>
   <v>       0.37500000       0.50000000       0.37500000 </v>
  </varray>
 </structure>
</modeling>
