   32   32  191    1
  0.1660753E+02  0.8100000E-09  0.8100000E-09  0.8100000E-09  0.5000000E-15
  1.000000000000000E-004
  CAR 
 unknown system                          
   96    1   72
 
  0.0000000E+00  0.0000000E+00  0.0000000E+00  0.1000000E+01
   1       -3.012340
   2       -0.712776
   3       -0.712776
   4       -0.712776
   5       -0.712776
   6       -0.712776
   7       -0.712776
   8        1.549123
   9        1.549123
  10        1.549123
  11        1.549123
  12        1.549123
  13        1.549123
  14        1.549123
  15        1.549123
  16        1.549123
  17        1.549123
  18        1.549123
  19        1.549123
  20        3.635794
  21        3.635794
  22        3.635794
  23        3.635794
  24        3.936498
  25        3.936498
  26        3.936498
  27        3.936498
  28        5.356672
  29        5.356672
  30        5.356672
  31        6.760956
  32        6.760956
  33        6.760956
  34        7.476227
  35        7.476227
  36        7.476227
  37        7.476227
  38        7.476227
  39        7.476227
  40        7.476227
  41        7.476227
  42        7.476227
  43        7.476227
  44        7.476227
  45        7.476227
  46        8.483156
  47        8.483156
  48        8.483156
  49        8.483156
  50        8.483156
  51        8.483156
  52        9.603398
  53        9.603398
  54        9.603398
  55        9.603398
  56        9.603398
  57        9.603398
  58        9.603399
  59        9.603399
  60        9.603399
  61        9.603399
  62        9.650784
  63        9.656745
  64        9.659165
  65        9.659165
  66        9.659165
  67        9.659165
  68       11.217067
  69       11.224566
  70       11.227405
  71       11.227405
  72       11.227405
