   31   31  191    1
  0.1706118E+02  0.8087052E-09  0.8087052E-09  0.8087052E-09  0.5000000E-15
  1.000000000000000E-004
  CAR 
 unknown system                          
   92    2   72
 
  0.2500000E+00  0.2500000E+00  0.2500000E+00  0.5000000E+00
   1       -2.982815
   2       -1.960049
   3       -1.878590
   4       -1.641635
   5       -0.811701
   6       -0.760610
   7       -0.354154
   8        0.257581
   9        0.321749
  10        0.532889
  11        0.616085
  12        1.345252
  13        1.363783
  14        1.406017
  15        1.539933
  16        1.813570
  17        1.940442
  18        2.700854
  19        2.708626
  20        2.904271
  21        3.530660
  22        3.591836
  23        3.629184
  24        3.677427
  25        3.736358
  26        4.050654
  27        4.531182
  28        4.558407
  29        4.645042
  30        4.807609
  31        4.864806
  32        4.870494
  33        4.929322
  34        5.110637
  35        5.206148
  36        5.726920
  37        5.892926
  38        6.355548
  39        6.710270
  40        6.775644
  41        6.786878
  42        6.944597
  43        6.989382
  44        7.094053
  45        7.149884
  46        7.789528
  47        7.887873
  48        8.006302
  49        8.036577
  50        8.162331
  51        8.198882
  52        8.207462
  53        8.373444
  54        8.536330
  55        9.057063
  56        9.137271
  57        9.188174
  58        9.354323
  59        9.372021
  60        9.513098
  61        9.970729
  62        9.984917
  63       10.064051
  64       10.155729
  65       10.203494
  66       10.211091
  67       10.518109
  68       10.653384
  69       10.781803
  70       10.939983
  71       11.102805
  72       11.222595
 
 -0.2500000E+00  0.2500000E+00  0.2500000E+00  0.5000000E+00
   1       -2.985772
   2       -1.950287
   3       -1.815519
   4       -1.721913
   5       -0.825108
   6       -0.609673
   7       -0.548285
   8        0.261953
   9        0.398545
  10        0.441630
  11        0.699296
  12        1.393418
  13        1.428432
  14        1.492935
  15        1.493411
  16        1.768627
  17        1.842672
  18        2.621545
  19        2.773180
  20        2.839355
  21        3.538011
  22        3.588275
  23        3.634307
  24        3.681469
  25        3.811636
  26        3.963673
  27        4.597931
  28        4.651521
  29        4.678466
  30        4.698633
  31        4.716713
  32        4.949584
  33        4.973404
  34        5.059634
  35        5.174823
  36        5.746468
  37        6.116920
  38        6.177887
  39        6.706386
  40        6.747046
  41        6.917343
  42        7.023885
  43        7.033405
  44        7.070508
  45        7.141517
  46        7.838064
  47        7.957045
  48        7.994736
  49        8.067297
  50        8.148830
  51        8.172180
  52        8.188120
  53        8.217112
  54        8.263839
  55        9.095359
  56        9.147034
  57        9.273402
  58        9.378270
  59        9.407889
  60        9.487786
  61        9.968227
  62        9.979559
  63       10.042378
  64       10.051627
  65       10.142545
  66       10.231356
  67       10.555713
  68       10.565920
  69       10.682227
  70       10.962608
  71       11.263153
  72       11.334907
