 vasp.5.2.2 15Apr09 complex 
 executed on             LinuxIFC date 2017.03.17  11:35:25
 running on   12 nodes
 each image running on   12 nodes
 distr:  one band on    1 nodes,   12 groups


--------------------------------------------------------------------------------------------------------


 INCAR:
 POTCAR:   PAW_PBE Al 04Jan2001                   
 POTCAR:   PAW_PBE Mg 05Jan2001                   
 POTCAR:   PAW_PBE Al 04Jan2001                   
   VRHFIN =Al: s2p1                                                             
   LEXCH  = PE                                                                  
   EATOM  =    53.5387 eV,    3.9350 Ry                                         
                                                                                
   TITEL  = PAW_PBE Al 04Jan2001                                                
   LULTRA =        F    use ultrasoft PP ?                                      
   IUNSCR =        1    unscreen: 0-lin 1-nonlin 2-no                           
   RPACOR =    1.500    partial core radius                                     
   POMASS =   26.982; ZVAL   =    3.000    mass and valenz                      
   RCORE  =    1.900    outmost cutoff radius                                   
   RWIGS  =    2.650; RWIGS  =    1.402    wigner-seitz radius (au A)           
   ENMAX  =  240.300; ENMIN  =  180.225 eV                                      
   ICORE  =        2    local potential                                         
   LCOR   =        T    correct aug charges                                     
   LPAW   =        T    paw PP                                                  
   EAUG   =  291.052                                                            
   DEXC   =    -.041                                                            
   RMAX   =    2.974    core radius for proj-oper                               
   RAUG   =    1.300    factor for augmentation sphere                          
   RDEP   =    1.966    radius for radial grids                                 
   QCUT   =   -4.203; QGAM   =    8.405    optimization parameters              
                                                                                
   Description                                                                  
     l     E      TYP  RCUT    TYP  RCUT                                        
     0   .000     23  1.900                                                     
     0   .000     23  1.900                                                     
     1   .000     23  1.900                                                     
     1  1.000     23  1.900                                                     
     2   .000      7  1.900                                                     
  local pseudopotential read in
  partial core-charges read in
  atomic valenz-charges read in
  non local Contribution for L=           0  read in
    real space projection operators read in
  non local Contribution for L=           0  read in
    real space projection operators read in
  non local Contribution for L=           1  read in
    real space projection operators read in
  non local Contribution for L=           1  read in
    real space projection operators read in
    PAW grid and wavefunctions read in
 
   number of l-projection  operators is LMAX  =           4
   number of lm-projection operators is LMMAX =           8
 
 POTCAR:   PAW_PBE Mg 05Jan2001                   
   VRHFIN =Mg: s2p0                                                             
   LEXCH  = PE                                                                  
   EATOM  =    23.0029 eV,    1.6907 Ry                                         
                                                                                
   TITEL  = PAW_PBE Mg 05Jan2001                                                
   LULTRA =        F    use ultrasoft PP ?                                      
   IUNSCR =        1    unscreen: 0-lin 1-nonlin 2-no                           
   RPACOR =    2.000    partial core radius                                     
   POMASS =   24.305; ZVAL   =    2.000    mass and valenz                      
   RCORE  =    2.000    outmost cutoff radius                                   
   RWIGS  =    2.880; RWIGS  =    1.524    wigner-seitz radius (au A)           
   ENMAX  =  210.012; ENMIN  =  157.509 eV                                      
   ICORE  =        2    local potential                                         
   LCOR   =        T    correct aug charges                                     
   LPAW   =        T    paw PP                                                  
   EAUG   =  274.554                                                            
   DEXC   =    -.136                                                            
   RMAX   =    3.182    core radius for proj-oper                               
   RAUG   =    1.300    factor for augmentation sphere                          
   RDEP   =    2.025    radius for radial grids                                 
   QCUT   =   -3.929; QGAM   =    7.858    optimization parameters              
                                                                                
   Description                                                                  
     l     E      TYP  RCUT    TYP  RCUT                                        
     0   .000     23  2.000                                                     
     0  2.000     23  2.000                                                     
     1   .000     23  2.000                                                     
     1  2.000     23  2.000                                                     
     2   .000     23  2.000                                                     
  local pseudopotential read in
  partial core-charges read in
  atomic valenz-charges read in
  non local Contribution for L=           0  read in
    real space projection operators read in
  non local Contribution for L=           0  read in
    real space projection operators read in
  non local Contribution for L=           1  read in
    real space projection operators read in
  non local Contribution for L=           1  read in
    real space projection operators read in
    PAW grid and wavefunctions read in
 
   number of l-projection  operators is LMAX  =           4
   number of lm-projection operators is LMMAX =           8
 

 ----------------------------------------------------------------------------- 
|                                                                             |
|  ADVICE TO THIS USER RUNNING 'VASP/VAMP'   (HEAR YOUR MASTER'S VOICE ...):  |
|                                                                             |
|      You have a (more or less) 'large supercell' and for larger cells       |
|      it might be more efficient to use real space projection operators      |
|      So try LREAL= Auto  in the INCAR   file.                               |
|      Mind: If you want to do a very accurate calculations keep the          |
|      reciprocal projection scheme          (i.e. LREAL=.FALSE.)             |
|                                                                             |
 ----------------------------------------------------------------------------- 

 PAW_PBE Al 04Jan2001                   :
 energy of atom  1       EATOM=  -53.5387
 kinetic energy error for atom=    0.0011 (will be added to EATOM!!)
 PAW_PBE Mg 05Jan2001                   :
 energy of atom  2       EATOM=  -23.0029
 kinetic energy error for atom=    0.0002 (will be added to EATOM!!)
 
 
 POSCAR: Mg1 Al30                                
  positions in direct lattice
  velocities in cartesian coordinates
 exchange correlation table for  LEXCH =        8
   RHO(1)=    0.500       N(1)  =     2000
   RHO(2)=  100.500       N(2)  =     4000

 VTST: version 2.03d, (02/18/09)

 CHAIN: initializing optimizer
 
 OPT: Using VASP QUASI-newton optimizer
 CHAIN: Read ICHAIN            0
 CHAIN: Running the NEB
 NEB:          SPRING     -5.000000
 NEB:          LCLIMB      T
 NEB:     LTANGENTOLD      F
 NEB:           LDNEB      F
 NEB:        LDNEBORG      F
 NEB:          EFIRST      0.000000
 NEB:           ELAST      0.000000
 
 POSCAR: Mg1 Al30                                
  positions in direct lattice
  velocities in cartesian coordinates
 
 POSCAR: Mg1 Al30                                
  positions in direct lattice
  velocities in cartesian coordinates
 


--------------------------------------------------------------------------------------------------------


 ion  position               nearest neighbor table
   1  0.991  0.000  0.991-  21 2.66  14 2.73  27 2.73   7 2.73  19 2.73  17 2.78   6 2.78   4 2.89
                            10 2.89  11 2.89   3 2.89   2 2.99
   2  0.253  0.000  0.253-   8 2.78  15 2.78  18 2.78  26 2.78  20 2.80   4 2.87   3 2.87  10 2.87
                            11 2.87  16 2.95   5 2.95   1 2.99
   3  0.248  0.248  0.999-  17 2.78  19 2.84   4 2.86  23 2.86   2 2.87   5 2.88   1 2.89   8 2.89
                            25 2.89   9 2.90  12 2.92
   4  0.999  0.248  0.248-   6 2.78   7 2.84   3 2.86  22 2.86   2 2.87  16 2.88   1 2.89  18 2.89
                            13 2.89   9 2.90  24 2.92
   5  0.504  0.000  0.989-   8 2.66  15 2.66  23 2.78  30 2.78  17 2.78  21 2.78  14 2.80   7 2.80
                             3 2.88  10 2.88   2 2.95   6 2.95
   6  0.761  0.000  0.246-   8 2.66  15 2.66  11 2.78   4 2.78  16 2.78   1 2.78  14 2.80   7 2.80
                            22 2.88  29 2.88  20 2.95   5 2.95
   7  0.753  0.239  0.997-   8 2.72   1 2.73  21 2.73  19 2.79   5 2.80   6 2.80  23 2.84   4 2.84
                            28 2.87   9 2.87  13 2.90  12 2.90
   8  0.516  0.219  0.234-   5 2.66   6 2.66   7 2.72   2 2.78  20 2.78  31 2.79   3 2.89  22 2.89
                            13 2.93  12 2.93  18 3.23
   9  0.994  0.500  0.994-  28 2.71  25 2.85  13 2.85   7 2.87  19 2.87  27 2.87  14 2.87   4 2.90
                            11 2.90  10 2.90   3 2.90
  10  0.248  0.752  0.999-  17 2.78  27 2.84  11 2.86  30 2.86   2 2.87   5 2.88   1 2.89  15 2.89
                            25 2.89   9 2.90  12 2.92
  11  0.999  0.752  0.248-   6 2.78  14 2.84  10 2.86  29 2.86   2 2.87  16 2.88   1 2.89  26 2.89
                            13 2.89   9 2.90  24 2.92
  12  0.508  0.500  0.006-  13 2.70  28 2.85  23 2.89  30 2.89   7 2.90  14 2.90  10 2.92   3 2.92
                            15 2.93   8 2.93  25 3.02  31 3.17
  13  0.744  0.500  0.242-  12 2.70   9 2.85  11 2.89   4 2.89   7 2.90  14 2.90  22 2.92  29 2.92
                             8 2.93  15 2.93  24 3.02  31 3.17
  14  0.753  0.761  0.997-  15 2.72   1 2.73  21 2.73  27 2.79   5 2.80   6 2.80  30 2.84  11 2.84
                            28 2.87   9 2.87  13 2.90  12 2.90
  15  0.516  0.781  0.234-   5 2.66   6 2.66  14 2.72   2 2.78  20 2.78  31 2.79  10 2.89  29 2.89
                            13 2.93  12 2.93  26 3.23
  16  0.989  0.000  0.504-  18 2.66  26 2.66  22 2.78  29 2.78   6 2.78  21 2.78  27 2.80  19 2.80
                            11 2.88   4 2.88   2 2.95  17 2.95
  17  0.246  0.000  0.761-  18 2.66  26 2.66   3 2.78  10 2.78   5 2.78   1 2.78  27 2.80  19 2.80
                            23 2.88  30 2.88  20 2.95  16 2.95
  18  0.234  0.219  0.516-  16 2.66  17 2.66  19 2.72   2 2.78  20 2.78  31 2.79   4 2.89  23 2.89
                            25 2.93  24 2.93   8 3.23
  19  0.997  0.239  0.753-  18 2.72   1 2.73  21 2.73   7 2.79  16 2.80  17 2.80  22 2.84   3 2.84
                            28 2.87   9 2.87  25 2.90  24 2.90
  20  0.497  0.000  0.497-   8 2.78  15 2.78  18 2.78  26 2.78   2 2.80  23 2.87  22 2.87  29 2.87
                            30 2.87   6 2.95  17 2.95  21 2.99
  21  0.759  0.000  0.759-   1 2.66  14 2.73  27 2.73  19 2.73   7 2.73   5 2.78  16 2.78  23 2.89
                            22 2.89  29 2.89  30 2.89  20 2.99
  22  0.751  0.248  0.502-  16 2.78  19 2.84  23 2.86   4 2.86  20 2.87   6 2.88  21 2.89   8 2.89
                            24 2.89  28 2.90  13 2.92
  23  0.502  0.248  0.751-   5 2.78   7 2.84  22 2.86   3 2.86  20 2.87  17 2.88  21 2.89  18 2.89
                            12 2.89  28 2.90  25 2.92
  24  0.006  0.500  0.508-  25 2.70  28 2.85  22 2.89  29 2.89  19 2.90  27 2.90   4 2.92  11 2.92
                            26 2.93  18 2.93  13 3.02  31 3.17
  25  0.242  0.500  0.744-  24 2.70   9 2.85  10 2.89   3 2.89  19 2.90  27 2.90  23 2.92  30 2.92
                            18 2.93  26 2.93  12 3.02  31 3.17
  26  0.234  0.781  0.516-  16 2.66  17 2.66  27 2.72  20 2.78   2 2.78  31 2.79  11 2.89  30 2.89
                            25 2.93  24 2.93  15 3.23
  27  0.997  0.761  0.753-  26 2.72  21 2.73   1 2.73  14 2.79  16 2.80  17 2.80  29 2.84  10 2.84
                            28 2.87   9 2.87  25 2.90  24 2.90
  28  0.757  0.500  0.757-   9 2.71  12 2.85  24 2.85  19 2.87   7 2.87  14 2.87  27 2.87  22 2.90
                            23 2.90  29 2.90  30 2.90
  29  0.751  0.752  0.502-  16 2.78  27 2.84  30 2.86  11 2.86  20 2.87   6 2.88  21 2.89  15 2.89
                            24 2.89  28 2.90  13 2.92
  30  0.502  0.752  0.751-   5 2.78  14 2.84  29 2.86  10 2.86  20 2.87  17 2.88  21 2.89  26 2.89
                            12 2.89  28 2.90  25 2.92
  31  0.375  0.500  0.375-   8 2.79  15 2.79  18 2.79  26 2.79  25 3.17  13 3.17  12 3.17  24 3.17

 
  LATTYP: Found a simple cubic cell.
 ALAT       =     8.0870520000
  
  Lattice vectors:
  
 A1 = (   8.0870520000,   0.0000000000,   0.0000000000)
 A2 = (   0.0000000000,   8.0870520000,   0.0000000000)
 A3 = (   0.0000000000,   0.0000000000,   8.0870520000)
 Subroutine PRICEL returns:
 Original cell was already a primitive cell.
 

Analysis of symmetry for initial positions (statically):

 Routine SETGRP: Setting up the symmetry group for a 
 simple cubic supercell.


 Subroutine GETGRP returns: Found  4 space group operations
 (whereof  4 operations were pure point group operations)
 out of a pool of 48 trial point group operations.


The static configuration has the point symmetry C_2v.

Analysis of symmetry for dynamics (positions and initial velocities):

 Subroutine DYNSYM returns: Found  4 space group operations
 (whereof  4 operations were pure point group operations)
 out of a pool of  4 trial space group operations
 (whereof  4 operations were pure point group operations)
 and found also     1 'primitive' translations


The dynamic configuration has the point symmetry C_2v.
 
 
 KPOINTS: Automatic kpoint scheme                 

Automatic generation of k-mesh.
 
 Subroutine IBZKPT returns following result:
 ===========================================
 
 Found      2 irreducible k-points:
 
 Following reciprocal coordinates:
            Coordinates               Weight
  0.250000  0.250000  0.250000      4.000000
 -0.250000  0.250000  0.250000      4.000000
 
 Following cartesian coordinates:
            Coordinates               Weight
  0.030914  0.030914  0.030914      4.000000
 -0.030914  0.030914  0.030914      4.000000
 


--------------------------------------------------------------------------------------------------------




 Dimension of arrays:
   k-points           NKPTS =      2   k-points in BZ     NKDIM =      2   number of bands    NBANDS=     72
   number of dos      NEDOS =    301   number of ions     NIONS =     31
   non local maximal  LDIM  =      4   non local SUM 2l+1 LMDIM =      8
   total plane-waves  NPLWV = 110592
   max r-space proj   IRMAX =      1   max aug-charges    IRDMAX=   9081
   dimension x,y,z NGX =    48 NGY =   48 NGZ =   48
   dimension x,y,z NGXF=    96 NGYF=   96 NGZF=   96
   support grid    NGXF=    96 NGYF=   96 NGZF=   96
   ions per type =              30   1
 NGX,Y,Z   is equivalent  to a cutoff of   9.87,  9.87,  9.87 a.u.
 NGXF,Y,Z  is equivalent  to a cutoff of  19.73, 19.73, 19.73 a.u.


 I would recommend the setting:
   dimension x,y,z NGX =    46 NGY =   46 NGZ =   46
 SYSTEM =  unknown system                          
 POSCAR =  Mg1 Al30                                

 Startparameter for this run:
   NWRITE =      2    write-flag & timer
   PREC   = accura    medium, high low
   ISTART =      0    job   : 0-new  1-cont  2-samecut
   ICHARG =      2    charge: 1-file 2-atom 10-const
   ISPIN  =      1    spin polarized calculation?
   LNONCOLLINEAR =      F non collinear calculations
   LSORBIT =      F    spin-orbit coupling
   INIWAV =      1    electr: 0-lowe 1-rand  2-diag
   LASPH  =      F    aspherical Exc in radial PAW
   METAGGA=      F    non-selfconsistent MetaGGA calc.

 Electronic Relaxation 1
   ENCUT  =  300.0 eV  22.05 Ry    4.70 a.u.  11.42 11.42 11.42*2*pi/ulx,y,z
   ENINI  =  300.0     initial cutoff
   ENAUG  =  291.1 eV  augmentation charge cutoff
   NELM   =     60;   NELMIN=  2; NELMDL=-12     # of ELM steps 
   EDIFF  = 0.1E-03   stopping-criterion for ELM
   LREAL  =      F    real-space projection
   LCOMPAT=      F    compatible to vasp.4.4
   LREAL_COMPAT= F    compatible to vasp.4.5.1-3
   GGA_COMPAT  = T    GGA compatible to vasp.4.4-vasp.4.6
   LMAXPAW     = -100 max onsite density
   LMAXMIX     =    2 max onsite mixed and CHGCAR
   VOSKOWN=      0    Vosko Wilk Nusair interpolation
   ROPT   =    0.00000   0.00000
 Ionic relaxation
   EDIFFG = 0.5E-01   stopping-criterion for IOM
   NSW    =    191    number of steps for IOM
   NBLOCK =      1;   KBLOCK =    191    inner block; outer block 
   IBRION =      1    ionic relax: 0-MD 1-quasi-New 2-CG
   NFREE  =      0    steps in history (QN), initial steepest desc. (CG)
   ISIF   =      2    stress and relaxation
   IWAVPR =     11    prediction:  0-non 1-charg 2-wave 3-comb
   ISYM   =      2    0-nonsym 1-usesym 2-fastsym
   LCORR  =      T    Harris-Foulkes like correction to forces

   POTIM  = 0.5000    time-step for ionic-motion
   TEIN   =    0.0    initial temperature
   TEBEG  =    0.0;   TEEND  =   0.0 temperature during run
   SMASS  =  -3.00    Nose mass-parameter (am)
   estimated Nose-frequenzy (Omega)   =  0.10E-29 period in steps =****** mass=  -0.149E-26a.u.
   NPACO  =    256;   APACO  = 16.0  distance and # of slots for P.C.
   PSTRESS=    0.0 pullay stress

  Mass of Ions in am
   POMASS =  26.98 24.30
  Ionic Valenz
   ZVAL   =   3.00  2.00
  Atomic Wigner-Seitz radii
   RWIGS  =  -1.00 -1.00
   NELECT =      92.0000    total number of electrons
   NUPDOWN=      -1.0000    fix difference up-down

 DOS related values:
   EMIN   =  10.00;   EMAX   =-10.00  energy-range for DOS
   EFERMI =   0.00
   ISMEAR =     1;   SIGMA  =   0.20  broadening in eV -4-tet -1-fermi 0-gaus

 Electronic relaxation 2 (details)
   IALGO  =     48    algorithm
   LDIAG  =      T    sub-space diagonalisation
   IMIX   =      4    mixing-type and parameters
     AMIX     =   0.40;   BMIX     =  1.00
     AMIX_MAG =   1.60;   BMIX_MAG =  1.00
     AMIN     =   0.10
     WC   =   100.;   INIMIX=   1;  MIXPRE=   1

 Intra band minimization:
   WEIMIN = 0.0010     energy-eigenvalue tresh-hold
   EBREAK =  0.40E-06  absolut break condition
   DEPER  =   0.30     relativ break condition  

   TIME   =   0.40     timestep for ELM

  volume/ion in A,a.u.               =      17.06       115.13
  Fermi-wavevector in a.u.,A,eV,Ry     =   0.913862  1.726948 11.362816  0.835143
  Thomas-Fermi vector in A             =   2.038422
 
 Write flags
   LWAVE  =      F    write WAVECAR
   LCHARG =      F    write CHGCAR
   LVTOT  =      F    write LOCPOT, local potential
   LELF   =      F    write electronic localiz. function (ELF)
   LORBIT =      0    0 simple, 1 ext, 2 COOP (PROOUT)


 Dipole corrections
   LMONO  =      F    monopole corrections only (constant potential shift)
   LDIPOL =      F    correct potential (dipole corrections)
   IDIPOL =      0    1-x, 2-y, 3-z, 4-all directions 
   EPSILON=  1.0000000 bulk dielectric constant

 Exchange correlation treatment:
   GGA     =    --    GGA type
   LEXCH   =     8    internal setting for exchange type
   VOSKOWN=      0    Vosko Wilk Nusair interpolation
   LHFCALC =     F    Hartree Fock is set to
   LHFONE  =     F    Hartree Fock one center treatment
   AEXX    =    0.0000 exact exchange contribution

 Linear response parameters
   LEPSILON=     F    determine dielectric tensor
   LRPA    =     F    only Hartree local field effects (RPA)
   LNABLA  =     F    use nabla operator in PAW spheres
   LVEL    =     F    velocity operator in full k-point grid
   LINTERFAST=   F  fast interpolation
   KINTER  =     0    interpolate to denser k-point grid
   CSHIFT  =0.1000    complex shift for real part using Kramers Kronig
   OMEGAMAX=  -1.0    maximum frequency

 Orbital magnetization related:
   ORBITALMAG=     F  switch on orbital magnetization
   LCHIMAG   =     F  perturbation theory with respect to B field



--------------------------------------------------------------------------------------------------------


 quasi-Newton-method for relaxation of ions
 charge density and potential will be updated during run
 non-spin polarized calculation
 RMM-DIIS sequential band-by-band
 perform sub-space diagonalisation
    before iterative eigenvector-optimisation
 modified Broyden-mixing scheme, WC =      100.0
 initial mixing is a Kerker type mixing with AMIX =  0.4000 and BMIX =      1.0000
 Hartree-type preconditioning will be used
 using additional bands           26
 reciprocal scheme for non local part
 use partial core corrections
 calculate Harris-corrections to forces 
   (improved forces if not selfconsistent)
 use gradient corrections 
 use of overlap-Matrix (Vanderbilt PP)
 Methfessel and Paxton  Order N= 1 SIGMA  =   0.20


--------------------------------------------------------------------------------------------------------


  energy-cutoff  :      300.00
  volume of cell :      528.90
      direct lattice vectors                 reciprocal lattice vectors
     8.087052000  0.000000000  0.000000000     0.123654454  0.000000000  0.000000000
     0.000000000  8.087052000  0.000000000     0.000000000  0.123654454  0.000000000
     0.000000000  0.000000000  8.087052000     0.000000000  0.000000000  0.123654454

  length of vectors
     8.087052000  8.087052000  8.087052000     0.123654454  0.123654454  0.123654454


 
 k-points in units of 2pi/SCALE and weight: Automatic kpoint scheme                 
   0.03091361  0.03091361  0.03091361       0.500
  -0.03091361  0.03091361  0.03091361       0.500
 
 k-points in reciprocal lattice and weights: Automatic kpoint scheme                 
   0.25000000  0.25000000  0.25000000       0.500
  -0.25000000  0.25000000  0.25000000       0.500
 
 position of ions in fractional coordinates (direct lattice) 
   0.99121700  0.00000000  0.99121700
   0.25278600  0.00000000  0.25278600
   0.24847800  0.24820500  0.99850900
   0.99850900  0.24820500  0.24847800
   0.50366700  0.00000000  0.98870300
   0.76129700  0.00000000  0.24633400
   0.75324100  0.23903200  0.99675900
   0.51622400  0.21908900  0.23377600
   0.99350100  0.50000000  0.99350100
   0.24847800  0.75179500  0.99850900
   0.99850900  0.75179500  0.24847800
   0.50800300  0.50000000  0.00571000
   0.74428900  0.50000000  0.24199400
   0.75324100  0.76096900  0.99675900
   0.51622400  0.78091100  0.23377600
   0.98870300  0.00000000  0.50366700
   0.24633400  0.00000000  0.76129700
   0.23377600  0.21908900  0.51622400
   0.99675900  0.23903200  0.75324100
   0.49721400  0.00000000  0.49721400
   0.75878300  0.00000000  0.75878300
   0.75149100  0.24820500  0.50152400
   0.50152400  0.24820500  0.75149100
   0.00571000  0.50000000  0.50800300
   0.24199400  0.50000000  0.74428900
   0.23377600  0.78091100  0.51622400
   0.99675900  0.76096900  0.75324100
   0.75650000  0.50000000  0.75650000
   0.75149100  0.75179500  0.50152400
   0.50152400  0.75179500  0.75149100
   0.37500400  0.50000000  0.37500400
 
 position of ions in cartesian coordinates  (Angst):
   8.01602342  0.00000000  8.01602342
   2.04429353  0.00000000  2.04429353
   2.00945451  2.00724674  8.07499421
   8.07499421  2.00724674  2.00945451
   4.07318122  0.00000000  7.99569257
   6.15664843  0.00000000  1.99211587
   6.09149914  1.93306421  8.06084186
   4.17473033  1.77178414  1.89055867
   8.03449425  4.04352600  8.03449425
   2.00945451  6.07980526  8.07499421
   8.07499421  6.07980526  2.00945451
   4.10824668  4.04352600  0.04617707
   6.01910385  4.04352600  1.95701806
   6.09149914  6.15399587  8.06084186
   4.17473033  6.31526786  1.89055867
   7.99569257  0.00000000  4.07318122
   1.99211587  0.00000000  6.15664843
   1.89055867  1.77178414  4.17473033
   8.06084186  1.93306421  6.09149914
   4.02099547  0.00000000  4.02099547
   6.13631758  0.00000000  6.13631758
   6.07734679  2.00724674  4.05585067
   4.05585067  2.00724674  6.07734679
   0.04617707  4.04352600  4.10824668
   1.95701806  4.04352600  6.01910385
   1.89055867  6.31526786  4.17473033
   8.06084186  6.15399587  6.09149914
   6.11785484  4.04352600  6.11785484
   6.07734679  6.07980526  4.05585067
   4.05585067  6.07980526  6.07734679
   3.03267685  4.04352600  3.03267685
 


--------------------------------------------------------------------------------------------------------


 k-point  1 :  0.25000.25000.2500  plane waves:    6238
 k-point  2 :  -.25000.25000.2500  plane waves:    6238

 maximum and minimum number of plane-waves per node :    6238   6238

 maximum number of plane-waves:    6238
 maximal index in each direction: 
   IXMAX= 11   IYMAX= 11   IZMAX= 11
   IXMIN=-11   IYMIN=-11   IZMIN=-11

 NGX is ok and might be reduce to  46
 NGY is ok and might be reduce to  46
 NGZ is ok and might be reduce to  46

 serial   3D FFT for wavefunctions
 parallel 3D FFT for charge:
    minimum data exchange during FFTs selected (reduces bandwidth)


 total amount of memory used by VASP on root node  60642. kBytes
========================================================================

   base      :    30000. kBytes
   nonl-proj :     4692. kBytes
   fftplans  :     2983. kBytes
   grid      :    21626. kBytes
   one-center:       95. kBytes
   wavefun   :     1246. kBytes
 
 Broyden mixing: mesh for mixing (old mesh)
   NGX = 23   NGY = 23   NGZ = 23
  (NGX  = 96   NGY  = 96   NGZ  = 96)
  gives a total of  12167 points

 initial charge density was supplied:
 charge density of overlapping atoms calculated
 number of electron   92.0000000 magnetization 
 keeping initial charge density in first step


--------------------------------------------------------------------------------------------------------


 Maximum index for augmentation-charges          619 (set IRDMAX)


--------------------------------------------------------------------------------------------------------


 First call to EWALD:  gamma=   0.219
 Maximum number of real-space cells 3x 3x 3
 Maximum number of reciprocal cells 3x 3x 3

    FEWALD:  cpu time    0.01: real time    0.01
   RESPFUN:  cpu time    0.00: real time    0.00


----------------------------------------- Iteration    1(   1)  ---------------------------------------


    POTLOK:  cpu time    0.15: real time    0.15
    SETDIJ:  cpu time    0.01: real time    0.01
    EDDIAG:  cpu time    0.30: real time    0.30
  RMM-DIIS:  cpu time    0.68: real time    0.68
    ORTHCH:  cpu time    0.02: real time    0.02
       DOS:  cpu time    0.00: real time    0.00
    --------------------------------------------
      LOOP:  cpu time    1.17: real time    1.17

 eigenvalue-minimisations  :   144
 total energy-change (2. order) : 0.2271056E+03  (-0.1550417E+04)
 number of electron   92.0000000 magnetization 
 augmentation part    92.0000000 magnetization 

 Free energy of the ion-electron system (eV)
  ---------------------------------------------------
  alpha Z        PSCENC =        -7.38313139
  Ewald energy   TEWEN  =     -2151.60777375
  -1/2 Hartree   DENC   =       -46.32740698
  -exchange  EXHF       =         0.00000000
  -V(xc)+E(xc)   XCENC  =      -795.98792558
  PAW double counting   =      1078.21717227     -108.50372521
  entropy T*S    EENTRO =         0.02489103
  eigenvalues    EBANDS =       629.54209854
  atomic energy  EATOM  =      1629.13144109
  ---------------------------------------------------
  free energy    TOTEN  =       227.10564003 eV

  energy without entropy =      227.08074899  energy(sigma->0) =      227.09734302


--------------------------------------------------------------------------------------------------------




----------------------------------------- Iteration    1(   2)  ---------------------------------------


    EDDIAG:  cpu time    0.30: real time    0.30
  RMM-DIIS:  cpu time    0.68: real time    0.68
    ORTHCH:  cpu time    0.02: real time    0.02
       DOS:  cpu time    0.00: real time    0.00
    --------------------------------------------
      LOOP:  cpu time    1.00: real time    1.01

 eigenvalue-minimisations  :   144
 total energy-change (2. order) :-0.2655480E+03  (-0.2569582E+03)
 number of electron   92.0000000 magnetization 
 augmentation part    92.0000000 magnetization 

 Free energy of the ion-electron system (eV)
  ---------------------------------------------------
  alpha Z        PSCENC =        -7.38313139
  Ewald energy   TEWEN  =     -2151.60777375
  -1/2 Hartree   DENC   =       -46.32740698
  -exchange  EXHF       =         0.00000000
  -V(xc)+E(xc)   XCENC  =      -795.98792558
  PAW double counting   =      1078.21717227     -108.50372521
  entropy T*S    EENTRO =        -0.00097764
  eigenvalues    EBANDS =       364.01995093
  atomic energy  EATOM  =      1629.13144109
  ---------------------------------------------------
  free energy    TOTEN  =       -38.44237625 eV

  energy without entropy =      -38.44139861  energy(sigma->0) =      -38.44205037


--------------------------------------------------------------------------------------------------------




----------------------------------------- Iteration    1(   3)  ---------------------------------------


    EDDIAG:  cpu time    0.30: real time    0.30
  RMM-DIIS:  cpu time    0.68: real time    0.68
    ORTHCH:  cpu time    0.02: real time    0.02
       DOS:  cpu time    0.00: real time    0.00
    --------------------------------------------
      LOOP:  cpu time    1.00: real time    1.00

 eigenvalue-minimisations  :   144
 total energy-change (2. order) :-0.5526833E+02  (-0.5437850E+02)
 number of electron   92.0000000 magnetization 
 augmentation part    92.0000000 magnetization 

 Free energy of the ion-electron system (eV)
  ---------------------------------------------------
  alpha Z        PSCENC =        -7.38313139
  Ewald energy   TEWEN  =     -2151.60777375
  -1/2 Hartree   DENC   =       -46.32740698
  -exchange  EXHF       =         0.00000000
  -V(xc)+E(xc)   XCENC  =      -795.98792558
  PAW double counting   =      1078.21717227     -108.50372521
  entropy T*S    EENTRO =        -0.07218813
  eigenvalues    EBANDS =       308.82283432
  atomic energy  EATOM  =      1629.13144109
  ---------------------------------------------------
  free energy    TOTEN  =       -93.71070336 eV

  energy without entropy =      -93.63851523  energy(sigma->0) =      -93.68664065


--------------------------------------------------------------------------------------------------------




----------------------------------------- Iteration    1(   4)  ---------------------------------------


    EDDIAG:  cpu time    0.30: real time    0.30
  RMM-DIIS:  cpu time    0.68: real time    0.68
    ORTHCH:  cpu time    0.02: real time    0.02
       DOS:  cpu time    0.00: real time    0.00
    --------------------------------------------
      LOOP:  cpu time    1.00: real time    1.00

 eigenvalue-minimisations  :   144
 total energy-change (2. order) :-0.1268964E+02  (-0.1113279E+02)
 number of electron   92.0000000 magnetization 
 augmentation part    92.0000000 magnetization 

 Free energy of the ion-electron system (eV)
  ---------------------------------------------------
  alpha Z        PSCENC =        -7.38313139
  Ewald energy   TEWEN  =     -2151.60777375
  -1/2 Hartree   DENC   =       -46.32740698
  -exchange  EXHF       =         0.00000000
  -V(xc)+E(xc)   XCENC  =      -795.98792558
  PAW double counting   =      1078.21717227     -108.50372521
  entropy T*S    EENTRO =        -0.04531072
  eigenvalues    EBANDS =       296.10631605
  atomic energy  EATOM  =      1629.13144109
  ---------------------------------------------------
  free energy    TOTEN  =      -106.40034422 eV

  energy without entropy =     -106.35503349  energy(sigma->0) =     -106.38524064


--------------------------------------------------------------------------------------------------------




----------------------------------------- Iteration    1(   5)  ---------------------------------------


    EDDIAG:  cpu time    0.30: real time    0.30
  RMM-DIIS:  cpu time    0.68: real time    0.68
    ORTHCH:  cpu time    0.02: real time    0.02
       DOS:  cpu time    0.00: real time    0.00
    --------------------------------------------
      LOOP:  cpu time    1.00: real time    1.00

 eigenvalue-minimisations  :   144
 total energy-change (2. order) :-0.4407734E+01  (-0.3354480E+01)
 number of electron   92.0000000 magnetization 
 augmentation part    92.0000000 magnetization 

 Free energy of the ion-electron system (eV)
  ---------------------------------------------------
  alpha Z        PSCENC =        -7.38313139
  Ewald energy   TEWEN  =     -2151.60777375
  -1/2 Hartree   DENC   =       -46.32740698
  -exchange  EXHF       =         0.00000000
  -V(xc)+E(xc)   XCENC  =      -795.98792558
  PAW double counting   =      1078.21717227     -108.50372521
  entropy T*S    EENTRO =        -0.04538545
  eigenvalues    EBANDS =       291.69865652
  atomic energy  EATOM  =      1629.13144109
  ---------------------------------------------------
  free energy    TOTEN  =      -110.80807847 eV

  energy without entropy =     -110.76269302  energy(sigma->0) =     -110.79294999


--------------------------------------------------------------------------------------------------------




----------------------------------------- Iteration    1(   6)  ---------------------------------------


    EDDIAG:  cpu time    0.30: real time    0.30
  RMM-DIIS:  cpu time    0.68: real time    0.68
    ORTHCH:  cpu time    0.02: real time    0.02
       DOS:  cpu time    0.00: real time    0.00
    --------------------------------------------
      LOOP:  cpu time    1.00: real time    1.00

 eigenvalue-minimisations  :   144
 total energy-change (2. order) :-0.1535510E+01  (-0.1131866E+01)
 number of electron   92.0000000 magnetization 
 augmentation part    92.0000000 magnetization 

 Free energy of the ion-electron system (eV)
  ---------------------------------------------------
  alpha Z        PSCENC =        -7.38313139
  Ewald energy   TEWEN  =     -2151.60777375
  -1/2 Hartree   DENC   =       -46.32740698
  -exchange  EXHF       =         0.00000000
  -V(xc)+E(xc)   XCENC  =      -795.98792558
  PAW double counting   =      1078.21717227     -108.50372521
  entropy T*S    EENTRO =        -0.05765531
  eigenvalues    EBANDS =       290.17541676
  atomic energy  EATOM  =      1629.13144109
  ---------------------------------------------------
  free energy    TOTEN  =      -112.34358809 eV

  energy without entropy =     -112.28593278  energy(sigma->0) =     -112.32436966


--------------------------------------------------------------------------------------------------------




----------------------------------------- Iteration    1(   7)  ---------------------------------------


    EDDIAG:  cpu time    0.30: real time    0.30
  RMM-DIIS:  cpu time    0.68: real time    0.68
    ORTHCH:  cpu time    0.02: real time    0.02
       DOS:  cpu time    0.00: real time    0.00
    --------------------------------------------
      LOOP:  cpu time    1.00: real time    1.00

 eigenvalue-minimisations  :   144
 total energy-change (2. order) :-0.5051960E+00  (-0.4048583E+00)
 number of electron   92.0000000 magnetization 
 augmentation part    92.0000000 magnetization 

 Free energy of the ion-electron system (eV)
  ---------------------------------------------------
  alpha Z        PSCENC =        -7.38313139
  Ewald energy   TEWEN  =     -2151.60777375
  -1/2 Hartree   DENC   =       -46.32740698
  -exchange  EXHF       =         0.00000000
  -V(xc)+E(xc)   XCENC  =      -795.98792558
  PAW double counting   =      1078.21717227     -108.50372521
  entropy T*S    EENTRO =        -0.04543142
  eigenvalues    EBANDS =       289.65799691
  atomic energy  EATOM  =      1629.13144109
  ---------------------------------------------------
  free energy    TOTEN  =      -112.84878406 eV

  energy without entropy =     -112.80335264  energy(sigma->0) =     -112.83364025


--------------------------------------------------------------------------------------------------------




----------------------------------------- Iteration    1(   8)  ---------------------------------------


    EDDIAG:  cpu time    0.30: real time    0.30
  RMM-DIIS:  cpu time    0.68: real time    0.68
    ORTHCH:  cpu time    0.02: real time    0.02
       DOS:  cpu time    0.00: real time    0.00
    --------------------------------------------
      LOOP:  cpu time    1.00: real time    1.00

 eigenvalue-minimisations  :   144
 total energy-change (2. order) :-0.1859792E+00  (-0.1543437E+00)
 number of electron   92.0000000 magnetization 
 augmentation part    92.0000000 magnetization 

 Free energy of the ion-electron system (eV)
  ---------------------------------------------------
  alpha Z        PSCENC =        -7.38313139
  Ewald energy   TEWEN  =     -2151.60777375
  -1/2 Hartree   DENC   =       -46.32740698
  -exchange  EXHF       =         0.00000000
  -V(xc)+E(xc)   XCENC  =      -795.98792558
  PAW double counting   =      1078.21717227     -108.50372521
  entropy T*S    EENTRO =        -0.04033680
  eigenvalues    EBANDS =       289.46692310
  atomic energy  EATOM  =      1629.13144109
  ---------------------------------------------------
  free energy    TOTEN  =      -113.03476325 eV

  energy without entropy =     -112.99442645  energy(sigma->0) =     -113.02131765


--------------------------------------------------------------------------------------------------------




----------------------------------------- Iteration    1(   9)  ---------------------------------------


    EDDIAG:  cpu time    0.30: real time    0.30
  RMM-DIIS:  cpu time    1.33: real time    1.33
    ORTHCH:  cpu time    0.02: real time    0.02
       DOS:  cpu time    0.00: real time    0.00
    --------------------------------------------
      LOOP:  cpu time    1.65: real time    1.65

 eigenvalue-minimisations  :   326
 total energy-change (2. order) :-0.1069555E+00  (-0.9672901E-01)
 number of electron   92.0000000 magnetization 
 augmentation part    92.0000000 magnetization 

 Free energy of the ion-electron system (eV)
  ---------------------------------------------------
  alpha Z        PSCENC =        -7.38313139
  Ewald energy   TEWEN  =     -2151.60777375
  -1/2 Hartree   DENC   =       -46.32740698
  -exchange  EXHF       =         0.00000000
  -V(xc)+E(xc)   XCENC  =      -795.98792558
  PAW double counting   =      1078.21717227     -108.50372521
  entropy T*S    EENTRO =        -0.03826461
  eigenvalues    EBANDS =       289.35789543
  atomic energy  EATOM  =      1629.13144109
  ---------------------------------------------------
  free energy    TOTEN  =      -113.14171872 eV

  energy without entropy =     -113.10345411  energy(sigma->0) =     -113.12896385


--------------------------------------------------------------------------------------------------------




----------------------------------------- Iteration    1(  10)  ---------------------------------------


    EDDIAG:  cpu time    0.30: real time    0.30
  RMM-DIIS:  cpu time    1.24: real time    1.24
    ORTHCH:  cpu time    0.02: real time    0.02
       DOS:  cpu time    0.00: real time    0.00
    --------------------------------------------
      LOOP:  cpu time    1.56: real time    1.56

 eigenvalue-minimisations  :   304
 total energy-change (2. order) :-0.1528562E-01  (-0.1092056E-01)
 number of electron   92.0000000 magnetization 
 augmentation part    92.0000000 magnetization 

 Free energy of the ion-electron system (eV)
  ---------------------------------------------------
  alpha Z        PSCENC =        -7.38313139
  Ewald energy   TEWEN  =     -2151.60777375
  -1/2 Hartree   DENC   =       -46.32740698
  -exchange  EXHF       =         0.00000000
  -V(xc)+E(xc)   XCENC  =      -795.98792558
  PAW double counting   =      1078.21717227     -108.50372521
  entropy T*S    EENTRO =        -0.03825674
  eigenvalues    EBANDS =       289.34260195
  atomic energy  EATOM  =      1629.13144109
  ---------------------------------------------------
  free energy    TOTEN  =      -113.15700434 eV

  energy without entropy =     -113.11874760  energy(sigma->0) =     -113.14425209


--------------------------------------------------------------------------------------------------------




----------------------------------------- Iteration    1(  11)  ---------------------------------------


    EDDIAG:  cpu time    0.30: real time    0.30
  RMM-DIIS:  cpu time    1.05: real time    1.05
    ORTHCH:  cpu time    0.02: real time    0.02
       DOS:  cpu time    0.00: real time    0.00
    --------------------------------------------
      LOOP:  cpu time    1.37: real time    1.37

 eigenvalue-minimisations  :   250
 total energy-change (2. order) :-0.7094719E-03  (-0.4190360E-03)
 number of electron   92.0000000 magnetization 
 augmentation part    92.0000000 magnetization 

 Free energy of the ion-electron system (eV)
  ---------------------------------------------------
  alpha Z        PSCENC =        -7.38313139
  Ewald energy   TEWEN  =     -2151.60777375
  -1/2 Hartree   DENC   =       -46.32740698
  -exchange  EXHF       =         0.00000000
  -V(xc)+E(xc)   XCENC  =      -795.98792558
  PAW double counting   =      1078.21717227     -108.50372521
  entropy T*S    EENTRO =        -0.03842928
  eigenvalues    EBANDS =       289.34206501
  atomic energy  EATOM  =      1629.13144109
  ---------------------------------------------------
  free energy    TOTEN  =      -113.15771381 eV

  energy without entropy =     -113.11928453  energy(sigma->0) =     -113.14490405


--------------------------------------------------------------------------------------------------------




----------------------------------------- Iteration    1(  12)  ---------------------------------------


    EDDIAG:  cpu time    0.30: real time    0.30
  RMM-DIIS:  cpu time    0.85: real time    0.85
    ORTHCH:  cpu time    0.02: real time    0.02
       DOS:  cpu time    0.00: real time    0.00
    CHARGE:  cpu time    0.19: real time    0.19
    MIXING:  cpu time    0.00: real time    0.00
    --------------------------------------------
      LOOP:  cpu time    1.36: real time    1.36

 eigenvalue-minimisations  :   175
 total energy-change (2. order) :-0.2073354E-04  (-0.1845321E-04)
 number of electron   91.9999998 magnetization 
 augmentation part    -1.1029133 magnetization 

 Broyden mixing:
  rms(total) = 0.58152E+00    rms(broyden)= 0.58151E+00
  rms(prec ) = 0.12536E+01
  weight for this iteration     100.00

 Free energy of the ion-electron system (eV)
  ---------------------------------------------------
  alpha Z        PSCENC =        -7.38313139
  Ewald energy   TEWEN  =     -2151.60777375
  -1/2 Hartree   DENC   =       -46.32740698
  -exchange  EXHF       =         0.00000000
  -V(xc)+E(xc)   XCENC  =      -795.98792558
  PAW double counting   =      1078.21717227     -108.50372521
  entropy T*S    EENTRO =        -0.03844047
  eigenvalues    EBANDS =       289.34205547
  atomic energy  EATOM  =      1629.13144109
  ---------------------------------------------------
  free energy    TOTEN  =      -113.15773454 eV

  energy without entropy =     -113.11929407  energy(sigma->0) =     -113.14492105


--------------------------------------------------------------------------------------------------------




----------------------------------------- Iteration    1(  13)  ---------------------------------------


    POTLOK:  cpu time    0.15: real time    0.15
    SETDIJ:  cpu time    0.01: real time    0.01
    EDDIAG:  cpu time    0.30: real time    0.30
  RMM-DIIS:  cpu time    1.20: real time    1.20
    ORTHCH:  cpu time    0.02: real time    0.02
       DOS:  cpu time    0.00: real time    0.00
    CHARGE:  cpu time    0.19: real time    0.19
    MIXING:  cpu time    0.00: real time    0.00
    --------------------------------------------
      LOOP:  cpu time    1.87: real time    1.87

 eigenvalue-minimisations  :   288
 total energy-change (2. order) : 0.1375439E+01  (-0.2969297E+00)
 number of electron   91.9999998 magnetization 
 augmentation part    -1.1085332 magnetization 

 Broyden mixing:
  rms(total) = 0.33724E+00    rms(broyden)= 0.33724E+00
  rms(prec ) = 0.53035E+00
  weight for this iteration     100.00

 eigenvalues of (default mixing * dielectric matrix)
  average eigenvalue GAMMA=   1.8561
  1.8561

 Free energy of the ion-electron system (eV)
  ---------------------------------------------------
  alpha Z        PSCENC =        -7.38313139
  Ewald energy   TEWEN  =     -2151.60777375
  -1/2 Hartree   DENC   =       -51.54808627
  -exchange  EXHF       =         0.00000000
  -V(xc)+E(xc)   XCENC  =      -794.77671716
  PAW double counting   =      1081.48366864     -111.94149084
  entropy T*S    EENTRO =        -0.01749162
  eigenvalues    EBANDS =       294.87728564
  atomic energy  EATOM  =      1629.13144109
  ---------------------------------------------------
  free energy    TOTEN  =      -111.78229565 eV

  energy without entropy =     -111.76480403  energy(sigma->0) =     -111.77646511


--------------------------------------------------------------------------------------------------------




----------------------------------------- Iteration    1(  14)  ---------------------------------------


    POTLOK:  cpu time    0.15: real time    0.15
    SETDIJ:  cpu time    0.01: real time    0.01
    EDDIAG:  cpu time    0.30: real time    0.30
  RMM-DIIS:  cpu time    1.19: real time    1.19
    ORTHCH:  cpu time    0.02: real time    0.02
       DOS:  cpu time    0.00: real time    0.00
    CHARGE:  cpu time    0.19: real time    0.19
    MIXING:  cpu time    0.00: real time    0.00
    --------------------------------------------
      LOOP:  cpu time    1.86: real time    1.87

 eigenvalue-minimisations  :   288
 total energy-change (2. order) : 0.2413206E+00  (-0.2276878E-01)
 number of electron   91.9999998 magnetization 
 augmentation part    -1.1186669 magnetization 

 Broyden mixing:
  rms(total) = 0.20207E+00    rms(broyden)= 0.20207E+00
  rms(prec ) = 0.29841E+00
  weight for this iteration     100.00

 eigenvalues of (default mixing * dielectric matrix)
  average eigenvalue GAMMA=   1.6993
  2.5201  0.8786

 Free energy of the ion-electron system (eV)
  ---------------------------------------------------
  alpha Z        PSCENC =        -7.38313139
  Ewald energy   TEWEN  =     -2151.60777375
  -1/2 Hartree   DENC   =       -52.07005824
  -exchange  EXHF       =         0.00000000
  -V(xc)+E(xc)   XCENC  =      -793.93204375
  PAW double counting   =      1083.10727216     -113.68710680
  entropy T*S    EENTRO =        -0.02767488
  eigenvalues    EBANDS =       294.92810053
  atomic energy  EATOM  =      1629.13144109
  ---------------------------------------------------
  free energy    TOTEN  =      -111.54097503 eV

  energy without entropy =     -111.51330015  energy(sigma->0) =     -111.53175007


--------------------------------------------------------------------------------------------------------




----------------------------------------- Iteration    1(  15)  ---------------------------------------


    POTLOK:  cpu time    0.15: real time    0.15
    SETDIJ:  cpu time    0.01: real time    0.01
    EDDIAG:  cpu time    0.30: real time    0.30
  RMM-DIIS:  cpu time    1.21: real time    1.21
    ORTHCH:  cpu time    0.02: real time    0.02
       DOS:  cpu time    0.00: real time    0.00
    CHARGE:  cpu time    0.19: real time    0.19
    MIXING:  cpu time    0.00: real time    0.00
    --------------------------------------------
      LOOP:  cpu time    1.88: real time    1.88

 eigenvalue-minimisations  :   289
 total energy-change (2. order) : 0.1079658E+00  (-0.9172222E-02)
 number of electron   91.9999998 magnetization 
 augmentation part    -1.1322139 magnetization 

 Broyden mixing:
  rms(total) = 0.42417E-01    rms(broyden)= 0.42417E-01
  rms(prec ) = 0.69389E-01
  weight for this iteration     100.00

 eigenvalues of (default mixing * dielectric matrix)
  average eigenvalue GAMMA=   1.6045
  2.6126  0.9190  1.2820

 Free energy of the ion-electron system (eV)
  ---------------------------------------------------
  alpha Z        PSCENC =        -7.38313139
  Ewald energy   TEWEN  =     -2151.60777375
  -1/2 Hartree   DENC   =       -53.28075354
  -exchange  EXHF       =         0.00000000
  -V(xc)+E(xc)   XCENC  =      -792.74243631
  PAW double counting   =      1084.97058309     -115.72184784
  entropy T*S    EENTRO =        -0.02859968
  eigenvalues    EBANDS =       295.22950911
  atomic energy  EATOM  =      1629.13144109
  ---------------------------------------------------
  free energy    TOTEN  =      -111.43300922 eV

  energy without entropy =     -111.40440953  energy(sigma->0) =     -111.42347599


--------------------------------------------------------------------------------------------------------




----------------------------------------- Iteration    1(  16)  ---------------------------------------


    POTLOK:  cpu time    0.15: real time    0.15
    SETDIJ:  cpu time    0.01: real time    0.01
    EDDIAG:  cpu time    0.30: real time    0.30
  RMM-DIIS:  cpu time    1.21: real time    1.21
    ORTHCH:  cpu time    0.02: real time    0.02
       DOS:  cpu time    0.00: real time    0.00
    CHARGE:  cpu time    0.19: real time    0.19
    MIXING:  cpu time    0.00: real time    0.00
    --------------------------------------------
      LOOP:  cpu time    1.89: real time    1.89

 eigenvalue-minimisations  :   290
 total energy-change (2. order) : 0.6802227E-02  (-0.8742640E-03)
 number of electron   91.9999998 magnetization 
 augmentation part    -1.1373652 magnetization 

 Broyden mixing:
  rms(total) = 0.78914E-02    rms(broyden)= 0.78913E-02
  rms(prec ) = 0.16607E-01
  weight for this iteration     100.00

 eigenvalues of (default mixing * dielectric matrix)
  average eigenvalue GAMMA=   1.6599
  2.6356  1.9708  1.0165  1.0165

 Free energy of the ion-electron system (eV)
  ---------------------------------------------------
  alpha Z        PSCENC =        -7.38313139
  Ewald energy   TEWEN  =     -2151.60777375
  -1/2 Hartree   DENC   =       -53.51083957
  -exchange  EXHF       =         0.00000000
  -V(xc)+E(xc)   XCENC  =      -792.42816824
  PAW double counting   =      1085.48747929     -116.29435030
  entropy T*S    EENTRO =        -0.02623891
  eigenvalues    EBANDS =       295.20537481
  atomic energy  EATOM  =      1629.13144109
  ---------------------------------------------------
  free energy    TOTEN  =      -111.42620699 eV

  energy without entropy =     -111.39996808  energy(sigma->0) =     -111.41746068


--------------------------------------------------------------------------------------------------------




----------------------------------------- Iteration    1(  17)  ---------------------------------------


    POTLOK:  cpu time    0.15: real time    0.15
    SETDIJ:  cpu time    0.01: real time    0.01
    EDDIAG:  cpu time    0.32: real time    0.32
  RMM-DIIS:  cpu time    1.17: real time    1.19
    ORTHCH:  cpu time    0.02: real time    0.02
       DOS:  cpu time    0.00: real time    0.00
    CHARGE:  cpu time    0.19: real time    0.19
    MIXING:  cpu time    0.00: real time    0.00
    --------------------------------------------
      LOOP:  cpu time    1.86: real time    1.88

 eigenvalue-minimisations  :   284
 total energy-change (2. order) : 0.3135406E-03  (-0.1058840E-03)
 number of electron   91.9999998 magnetization 
 augmentation part    -1.1389691 magnetization 

 Broyden mixing:
  rms(total) = 0.25339E-02    rms(broyden)= 0.25339E-02
  rms(prec ) = 0.44926E-02
  weight for this iteration     100.00

 eigenvalues of (default mixing * dielectric matrix)
  average eigenvalue GAMMA=   1.6393
  2.6459  2.0663  0.9712  0.9712  1.5417

 Free energy of the ion-electron system (eV)
  ---------------------------------------------------
  alpha Z        PSCENC =        -7.38313139
  Ewald energy   TEWEN  =     -2151.60777375
  -1/2 Hartree   DENC   =       -53.42758718
  -exchange  EXHF       =         0.00000000
  -V(xc)+E(xc)   XCENC  =      -792.39596136
  PAW double counting   =      1085.56916952     -116.38921834
  entropy T*S    EENTRO =        -0.02681382
  eigenvalues    EBANDS =       295.10398178
  atomic energy  EATOM  =      1629.13144109
  ---------------------------------------------------
  free energy    TOTEN  =      -111.42589345 eV

  energy without entropy =     -111.39907963  energy(sigma->0) =     -111.41695551


--------------------------------------------------------------------------------------------------------




----------------------------------------- Iteration    1(  18)  ---------------------------------------


    POTLOK:  cpu time    0.15: real time    0.15
    SETDIJ:  cpu time    0.01: real time    0.01
    EDDIAG:  cpu time    0.30: real time    0.30
  RMM-DIIS:  cpu time    0.88: real time    0.88
    ORTHCH:  cpu time    0.02: real time    0.02
       DOS:  cpu time    0.00: real time    0.00
    --------------------------------------------
      LOOP:  cpu time    1.36: real time    1.36

 eigenvalue-minimisations  :   193
 total energy-change (2. order) :-0.1035588E-05  (-0.8154451E-05)
 number of electron   91.9999998 magnetization 
 augmentation part    -1.1389691 magnetization 

 Free energy of the ion-electron system (eV)
  ---------------------------------------------------
  alpha Z        PSCENC =        -7.38313139
  Ewald energy   TEWEN  =     -2151.60777375
  -1/2 Hartree   DENC   =       -53.44974579
  -exchange  EXHF       =         0.00000000
  -V(xc)+E(xc)   XCENC  =      -792.38604909
  PAW double counting   =      1085.58280598     -116.40776500
  entropy T*S    EENTRO =        -0.02677337
  eigenvalues    EBANDS =       295.12109683
  atomic energy  EATOM  =      1629.13144109
  ---------------------------------------------------
  free energy    TOTEN  =      -111.42589448 eV

  energy without entropy =     -111.39912112  energy(sigma->0) =     -111.41697003


--------------------------------------------------------------------------------------------------------




 average (electrostatic) potential at core
  the test charge radii are     1.0406  1.0714
  (the norm of the test charge is              1.0000)
       1 -72.9470       2 -73.1374       3 -73.0210       4 -73.0210       5 -73.0453
       6 -73.0453       7 -73.0665       8 -72.9446       9 -72.9920      10 -73.0210
      11 -73.0210      12 -73.0996      13 -73.0996      14 -73.0665      15 -72.9446
      16 -73.0453      17 -73.0453      18 -72.9446      19 -73.0665      20 -73.1373
      21 -72.9469      22 -73.0210      23 -73.0210      24 -73.0996      25 -73.0996
      26 -72.9446      27 -73.0665      28 -72.9920      29 -73.0210      30 -73.0210
      31 -50.7725
 
 
 
 E-fermi :   7.8183     XC(G=0):  -9.9994     alpha+bet :-14.3074
   add alpha+bet to get absolut eigen values

 k-point   1 :       0.2500    0.2500    0.2500
  band No.  band energies     occupation 
      1      -3.1454      2.00000
      2      -2.1527      2.00000
      3      -1.9361      2.00000
      4      -1.7229      2.00000
      5      -0.8989      2.00000
      6      -0.8366      2.00000
      7      -0.2988      2.00000
      8       0.0909      2.00000
      9       0.2962      2.00000
     10       0.4483      2.00000
     11       0.6656      2.00000
     12       1.1787      2.00000
     13       1.3365      2.00000
     14       1.3546      2.00000
     15       1.4016      2.00000
     16       1.8877      2.00000
     17       1.9629      2.00000
     18       2.7552      2.00000
     19       2.7564      2.00000
     20       3.0090      2.00000
     21       3.4252      2.00000
     22       3.4732      2.00000
     23       3.5266      2.00000
     24       3.5570      2.00000
     25       3.6650      2.00000
     26       4.0873      2.00000
     27       4.3484      2.00000
     28       4.4729      2.00000
     29       4.6551      2.00000
     30       4.7697      2.00000
     31       4.9130      2.00000
     32       4.9170      2.00000
     33       4.9490      2.00000
     34       5.1425      2.00000
     35       5.3054      2.00000
     36       5.7196      2.00000
     37       5.9305      2.00000
     38       6.4558      2.00000
     39       6.5791      2.00000
     40       6.6624      2.00000
     41       6.7623      2.00000
     42       6.8967      2.00000
     43       7.0184      2.00000
     44       7.1133      2.00001
     45       7.1995      2.00011
     46       7.7701      1.39482
     47       7.8088      1.08050
     48       7.9373      0.16431
     49       8.0500     -0.06944
     50       8.0709     -0.07049
     51       8.1239     -0.05277
     52       8.2048     -0.01976
     53       8.5313     -0.00001
     54       8.6880      0.00000
     55       8.9108      0.00000
     56       9.1051      0.00000
     57       9.1190      0.00000
     58       9.3322      0.00000
     59       9.3651      0.00000
     60       9.5324      0.00000
     61       9.8900      0.00000
     62       9.9738      0.00000
     63      10.0852      0.00000
     64      10.1371      0.00000
     65      10.1555      0.00000
     66      10.2402      0.00000
     67      10.5356      0.00000
     68      10.7374      0.00000
     69      10.9194      0.00000
     70      10.9944      0.00000
     71      11.1031      0.00000
     72      11.2011      0.00000

 k-point   2 :      -0.2500    0.2500    0.2500
  band No.  band energies     occupation 
      1      -3.1449      2.00000
      2      -2.1931      2.00000
      3      -1.8354      2.00000
      4      -1.7724      2.00000
      5      -0.9512      2.00000
      6      -0.7040      2.00000
      7      -0.4516      2.00000
      8       0.0371      2.00000
      9       0.3618      2.00000
     10       0.4484      2.00000
     11       0.6547      2.00000
     12       1.2965      2.00000
     13       1.3282      2.00000
     14       1.3682      2.00000
     15       1.6698      2.00000
     16       1.6963      2.00000
     17       1.8594      2.00000
     18       2.6668      2.00000
     19       2.7758      2.00000
     20       2.9394      2.00000
     21       3.3831      2.00000
     22       3.5117      2.00000
     23       3.5468      2.00000
     24       3.5782      2.00000
     25       3.8264      2.00000
     26       3.9129      2.00000
     27       4.4073      2.00000
     28       4.5353      2.00000
     29       4.6390      2.00000
     30       4.7026      2.00000
     31       4.8299      2.00000
     32       4.9282      2.00000
     33       5.0496      2.00000
     34       5.0859      2.00000
     35       5.2669      2.00000
     36       5.7218      2.00000
     37       6.1270      2.00000
     38       6.3052      2.00000
     39       6.6289      2.00000
     40       6.6394      2.00000
     41       6.9305      2.00000
     42       7.0205      2.00000
     43       7.0407      2.00000
     44       7.0833      2.00000
     45       7.1135      2.00001
     46       7.8122      1.05146
     47       7.8571      0.67846
     48       7.9560      0.08833
     49       8.0824     -0.06844
     50       8.0845     -0.06793
     51       8.0949     -0.06475
     52       8.1507     -0.04046
     53       8.2935     -0.00396
     54       8.5009     -0.00002
     55       9.0359      0.00000
     56       9.0425      0.00000
     57       9.1001      0.00000
     58       9.3377      0.00000
     59       9.4391      0.00000
     60       9.5435      0.00000
     61       9.8473      0.00000
     62       9.9751      0.00000
     63      10.0399      0.00000
     64      10.1059      0.00000
     65      10.1756      0.00000
     66      10.1960      0.00000
     67      10.5376      0.00000
     68      10.7149      0.00000
     69      10.7497      0.00000
     70      10.9829      0.00000
     71      11.3125      0.00000
     72      11.5033      0.00000


--------------------------------------------------------------------------------------------------------


 soft charge-density along one line, spin component           1
         0         1         2         3         4         5         6         7         8         9
 total charge-density along one line
 
 pseudopotential strength for first ion, spin component:           1
  8.462  -0.006   0.000   0.000   0.000   0.000   0.000   0.000
 -0.006   0.000   0.000   0.000   0.000   0.000   0.000   0.000
  0.000   0.000   1.990   0.000   0.000  -0.026   0.000   0.000
  0.000   0.000   0.000   1.990   0.000   0.000  -0.026   0.000
  0.000   0.000   0.000   0.000   1.990   0.000   0.000  -0.026
  0.000   0.000  -0.026   0.000   0.000  -0.012   0.000   0.000
  0.000   0.000   0.000  -0.026   0.000   0.000  -0.012   0.000
  0.000   0.000   0.000   0.000  -0.026   0.000   0.000  -0.012
 total augmentation occupancy for first ion, spin component:           1
  1.285  -0.593   0.000  -0.026  -0.026   0.000   0.026   0.026
 -0.593   0.573   0.000   0.046   0.046   0.000  -0.024  -0.024
  0.000   0.000   0.800   0.000   0.000  -0.207   0.000   0.000
 -0.026   0.046   0.000   0.797  -0.005   0.000  -0.208   0.002
 -0.026   0.046   0.000  -0.005   0.797   0.000   0.002  -0.208
  0.000   0.000  -0.207   0.000   0.000   0.060   0.000   0.000
  0.026  -0.024   0.000  -0.208   0.002   0.000   0.061   0.000
  0.026  -0.024   0.000   0.002  -0.208   0.000   0.000   0.061


------------------------ aborting loop because EDIFF is reached ----------------------------------------




--------------------------------------------------------------------------------------------------------



  FREE ENERGIE OF THE ION-ELECTRON SYSTEM (eV)
  ---------------------------------------------------
  free  energy   TOTEN  =      -111.425894 eV

  energy  without entropy=     -111.399121  energy(sigma->0) =     -111.416970
 
    CHARGE:  cpu time    0.19: real time    0.19
    FORLOC:  cpu time    0.04: real time    0.04
    FORNL :  cpu time    0.46: real time    0.46
    STRESS:  cpu time    1.00: real time    1.00
    FORCOR:  cpu time    0.17: real time    0.17
    FORHAR:  cpu time    0.07: real time    0.07
    MIXING:  cpu time    0.00: real time    0.01

  FORCE on cell =-STRESS in cart. coord.  units (eV):
  Direction    XX          YY          ZZ          XY          YZ          ZX
  --------------------------------------------------------------------------------------
  Alpha Z    -7.38313    -7.38313    -7.38313
  Ewald    -707.98183  -735.65236  -707.98183     0.00000     0.00000     1.72473
  Hartree    25.90569     1.63979    25.90569     0.00000     0.00000     3.75406
  E(xc)    -261.67989  -261.89525  -261.67989     0.00000     0.00000     0.15488
  Local     -51.45940     0.14996   -51.45940     0.00000     0.00000    -5.82349
  n-local   579.82909   581.74110   579.82909     0.46674    -0.84753    -1.47350
  augment   -30.39680   -30.49543   -30.39679     0.00000    -0.00001     0.01671
  Kinetic   456.05785   458.04943   456.05809    -2.49568    -0.26527     1.61890
  Fock        0.00000     0.00000     0.00000     0.00000     0.00000     0.00000
  -------------------------------------------------------------------------------------
  Total       2.89170     6.15411     2.89170     0.00000     0.00000    -0.02771
  in kB       8.75979    18.64253     8.75979     0.00000     0.00000    -0.08393
  external pressure =       12.05 kB  Pullay stress =        0.00 kB


 VOLUME and BASIS-vectors are now :
 -----------------------------------------------------------------------------
  energy-cutoff  :      300.00
  volume of cell :      528.90
      direct lattice vectors                 reciprocal lattice vectors
     8.087052000  0.000000000  0.000000000     0.123654454  0.000000000  0.000000000
     0.000000000  8.087052000  0.000000000     0.000000000  0.123654454  0.000000000
     0.000000000  0.000000000  8.087052000     0.000000000  0.000000000  0.123654454

  length of vectors
     8.087052000  8.087052000  8.087052000     0.123654454  0.123654454  0.123654454


 FORCES acting on ions
    electron-ion (+dipol)            ewald-force                    non-local-force                 convergence-correction
 -----------------------------------------------------------------------------------------------
   -.852E+01 0.874E-06 -.852E+01   0.757E+01 0.726E-04 0.757E+01   0.160E+01 0.000E+00 0.160E+01   -.355E-03 0.541E-06 -.354E-03
   0.103E+01 0.132E-08 0.103E+01   -.637E+00 0.214E-06 -.637E+00   -.793E+00 0.000E+00 -.793E+00   0.965E-03 0.523E-06 0.966E-03
   -.278E+01 -.151E+02 -.106E+02   0.245E+01 0.148E+02 0.103E+02   0.320E+00 0.650E+00 0.597E+00   0.811E-03 0.330E-03 -.922E-03
   -.106E+02 -.151E+02 -.278E+01   0.103E+02 0.148E+02 0.245E+01   0.597E+00 0.650E+00 0.320E+00   -.923E-03 0.331E-03 0.812E-03
   0.567E+01 0.375E-06 -.251E+00   -.570E+01 0.310E-04 -.267E-02   -.233E+00 0.000E+00 -.420E-01   0.417E-03 0.538E-06 0.108E-02
   0.251E+00 0.375E-06 -.567E+01   0.287E-02 0.310E-04 0.570E+01   0.421E-01 0.000E+00 0.233E+00   -.126E-02 0.538E-06 -.241E-03
   0.221E+01 -.111E+02 -.221E+01   -.227E+01 0.105E+02 0.227E+01   0.125E+00 0.117E+01 -.125E+00   -.954E-03 0.489E-03 0.806E-03
   0.101E+02 -.191E+02 -.101E+02   -.981E+01 0.185E+02 0.981E+01   -.638E+00 0.122E+01 0.638E+00   0.103E-02 -.104E-02 -.856E-03
   -.113E+02 0.935E-06 -.113E+02   0.109E+02 0.771E-04 0.109E+02   0.862E+00 0.000E+00 0.862E+00   -.691E-03 -.150E-05 -.690E-03
   -.278E+01 0.151E+02 -.106E+02   0.245E+01 -.148E+02 0.103E+02   0.320E+00 -.650E+00 0.597E+00   0.812E-03 -.330E-03 -.922E-03
   -.106E+02 0.151E+02 -.278E+01   0.103E+02 -.148E+02 0.245E+01   0.597E+00 -.650E+00 0.320E+00   -.923E-03 -.331E-03 0.812E-03
   0.122E+02 0.468E-06 -.533E+01   -.119E+02 0.382E-04 0.552E+01   -.874E+00 0.000E+00 -.427E+00   0.445E-03 -.112E-05 -.401E-03
   0.533E+01 0.468E-06 -.122E+02   -.552E+01 0.382E-04 0.119E+02   0.427E+00 0.000E+00 0.874E+00   0.256E-03 -.112E-05 -.285E-03
   0.221E+01 0.111E+02 -.221E+01   -.227E+01 -.105E+02 0.227E+01   0.125E+00 -.117E+01 -.125E+00   -.954E-03 -.488E-03 0.806E-03
   0.101E+02 0.191E+02 -.101E+02   -.981E+01 -.185E+02 0.981E+01   -.638E+00 -.122E+01 0.638E+00   0.103E-02 0.104E-02 -.855E-03
   -.251E+00 0.375E-06 0.567E+01   -.267E-02 0.310E-04 -.570E+01   -.420E-01 0.867E-18 -.233E+00   0.108E-02 0.538E-06 0.416E-03
   -.567E+01 0.375E-06 0.251E+00   0.570E+01 0.310E-04 0.287E-02   0.233E+00 0.000E+00 0.421E-01   -.242E-03 0.538E-06 -.126E-02
   -.101E+02 -.191E+02 0.101E+02   0.981E+01 0.185E+02 -.981E+01   0.638E+00 0.122E+01 -.638E+00   -.856E-03 -.104E-02 0.103E-02
   -.221E+01 -.111E+02 0.221E+01   0.227E+01 0.105E+02 -.227E+01   -.125E+00 0.117E+01 0.125E+00   0.805E-03 0.489E-03 -.955E-03
   -.103E+01 0.132E-08 -.103E+01   0.636E+00 0.214E-06 0.636E+00   0.793E+00 0.000E+00 0.793E+00   -.780E-03 0.523E-06 -.781E-03
   0.851E+01 0.874E-06 0.851E+01   -.757E+01 0.726E-04 -.757E+01   -.160E+01 0.000E+00 -.160E+01   0.175E-03 0.541E-06 0.174E-03
   0.106E+02 -.151E+02 0.278E+01   -.103E+02 0.148E+02 -.245E+01   -.597E+00 0.650E+00 -.321E+00   0.710E-03 0.319E-03 -.670E-03
   0.278E+01 -.151E+02 0.106E+02   -.245E+01 0.148E+02 -.103E+02   -.321E+00 0.650E+00 -.597E+00   -.669E-03 0.318E-03 0.709E-03
   -.533E+01 0.468E-06 0.122E+02   0.552E+01 0.382E-04 -.119E+02   -.427E+00 0.000E+00 -.874E+00   -.403E-03 -.112E-05 0.444E-03
   -.122E+02 0.468E-06 0.533E+01   0.119E+02 0.382E-04 -.552E+01   0.874E+00 0.173E-17 0.427E+00   -.286E-03 -.112E-05 0.255E-03
   -.101E+02 0.191E+02 0.101E+02   0.981E+01 -.185E+02 -.981E+01   0.638E+00 -.122E+01 -.638E+00   -.856E-03 0.104E-02 0.103E-02
   -.221E+01 0.111E+02 0.221E+01   0.227E+01 -.105E+02 -.227E+01   -.125E+00 -.117E+01 0.125E+00   0.805E-03 -.488E-03 -.955E-03
   0.113E+02 0.935E-06 0.113E+02   -.109E+02 0.771E-04 -.109E+02   -.862E+00 0.000E+00 -.862E+00   0.520E-03 -.150E-05 0.518E-03
   0.106E+02 0.151E+02 0.278E+01   -.103E+02 -.148E+02 -.245E+01   -.597E+00 -.650E+00 -.321E+00   0.710E-03 -.318E-03 -.670E-03
   0.278E+01 0.151E+02 0.106E+02   -.245E+01 -.148E+02 -.103E+02   -.321E+00 -.650E+00 -.597E+00   -.669E-03 -.318E-03 0.709E-03
   0.597E-04 0.266E-07 0.597E-04   -.144E-03 0.215E-05 -.144E-03   0.339E-04 0.000E+00 0.339E-04   0.691E-04 -.429E-06 0.691E-04
 -----------------------------------------------------------------------------------------------
   0.486E-03 0.410E-03 0.486E-03   -.449E-14 0.179E-13 -.672E-13   -.358E-03 -.222E-15 -.358E-03   -.189E-03 0.189E-05 -.189E-03
 
 
 POSITION                                       TOTAL-FORCE (eV/Angst)
 -----------------------------------------------------------------------------------
      8.01602      0.00000      8.01602         0.654842      0.000000      0.654842
      2.04429      0.00000      2.04429        -0.401883      0.000000     -0.401883
      2.00945      2.00725      8.07499        -0.008691      0.370532      0.355439
      8.07499      2.00725      2.00945         0.355439      0.370532     -0.008691
      4.07318      0.00000      7.99569        -0.262292      0.000000     -0.294482
      6.15665      0.00000      1.99212         0.294506      0.000000      0.262283
      6.09150      1.93306      8.06084         0.066223      0.474325     -0.066197
      4.17473      1.77178      1.89056        -0.338561      0.613671      0.338543
      8.03449      4.04353      8.03449         0.393052      0.000000      0.393052
      2.00945      6.07981      8.07499        -0.008691     -0.370532      0.355439
      8.07499      6.07981      2.00945         0.355439     -0.370532     -0.008691
      4.10825      4.04353      0.04618        -0.558107      0.000000     -0.237536
      6.01910      4.04353      1.95702         0.237534      0.000000      0.558142
      6.09150      6.15400      8.06084         0.066223     -0.474325     -0.066197
      4.17473      6.31527      1.89056        -0.338561     -0.613671      0.338543
      7.99569      0.00000      4.07318        -0.294482      0.000000     -0.262292
      1.99212      0.00000      6.15665         0.262283      0.000000      0.294506
      1.89056      1.77178      4.17473         0.338543      0.613671     -0.338561
      8.06084      1.93306      6.09150        -0.066197      0.474325      0.066223
      4.02100      0.00000      4.02100         0.401864      0.000000      0.401864
      6.13632      0.00000      6.13632        -0.654809      0.000000     -0.654809
      6.07735      2.00725      4.05585        -0.355429      0.370556      0.008625
      4.05585      2.00725      6.07735         0.008625      0.370556     -0.355429
      0.04618      4.04353      4.10825        -0.237536      0.000000     -0.558107
      1.95702      4.04353      6.01910         0.558142      0.000000      0.237534
      1.89056      6.31527      4.17473         0.338543     -0.613671     -0.338561
      8.06084      6.15400      6.09150        -0.066197     -0.474325      0.066223
      6.11785      4.04353      6.11785        -0.393039      0.000000     -0.393039
      6.07735      6.07981      4.05585        -0.355429     -0.370556      0.008625
      4.05585      6.07981      6.07735         0.008625     -0.370556     -0.355429
      3.03268      4.04353      3.03268         0.000020      0.000000      0.000020
 -----------------------------------------------------------------------------------
    total drift:                               -0.000060      0.000411     -0.000060


--------------------------------------------------------------------------------------------------------


    POTLOK:  cpu time    0.16: real time    0.16


--------------------------------------------------------------------------------------------------------


 NEB: the previous image is higher in energy: F
 NEB: the next image is higher in energy    : F
 NEB: image is at an extrema
 NEB: diff energy (min, max):   111.425894  111.425894

 NEB: Tangent
 ----------------------------------------------
     -0.00187      0.00000     -0.00187
      0.00297      0.00000      0.00297
      0.00457      0.01478      0.01566
      0.01566      0.01478      0.00457
      0.00147      0.00000      0.00146
      0.00147      0.00000      0.00147
     -0.00337      0.00000     -0.00337
     -0.01339      0.00001     -0.01337
      0.01622      0.00000      0.01622
      0.00457     -0.01478      0.01566
      0.01566     -0.01478      0.00457
     -0.01151      0.00000      0.01761
      0.01760      0.00000     -0.01150
     -0.00337      0.00000     -0.00337
     -0.01339     -0.00001     -0.01337
      0.00146      0.00000      0.00147
      0.00147      0.00000      0.00147
     -0.01337      0.00001     -0.01339
     -0.00337      0.00000     -0.00337
      0.00298      0.00000      0.00298
     -0.00188      0.00000     -0.00188
      0.01564     -0.01477      0.00456
      0.00456     -0.01477      0.01564
      0.01761      0.00000     -0.01151
     -0.01150      0.00000      0.01760
     -0.01337     -0.00001     -0.01339
     -0.00337      0.00000     -0.00337
      0.01620      0.00000      0.01620
      0.01564      0.01477      0.00456
      0.00456      0.01477      0.01564
      0.70417      0.00000      0.70417

 NEB: forces: par spring, perp REAL, dneb     0.000238    3.246679    0.000000
 NEB: distance to prev, next image, angle between     1.469579    1.469532  126.391961
 NEB: projections on to tangent (spring, REAL)    -0.000238    0.000164

  FORCES: max atom, RMS     0.926088    0.583121
  FORCE total and by dimension    3.246679    0.654843
 Quasi-Newton relaxation of ions (Broydens 2nd method)
  g(Force)  = 0.509E+00   g(Stress)= 0.000E+00

 Reset! Starting new Quasi-Newton update for ions 


--------------------------------------------------------------------------------------------------------


    WAVPRE:  cpu time    0.05: real time    0.05
    FEWALD:  cpu time    0.01: real time    0.01
    ORTHCH:  cpu time    0.11: real time    0.11
     LOOP+:  cpu time   27.13: real time   27.19
   RESPFUN:  cpu time    0.00: real time    0.00


----------------------------------------- Iteration    2(   1)  ---------------------------------------


    POTLOK:  cpu time    0.15: real time    0.15
    SETDIJ:  cpu time    0.01: real time    0.01
    EDDIAG:  cpu time    0.30: real time    0.30
  RMM-DIIS:  cpu time    1.24: real time    1.24
    ORTHCH:  cpu time    0.02: real time    0.02
       DOS:  cpu time    0.00: real time    0.00
    CHARGE:  cpu time    0.19: real time    0.19
    MIXING:  cpu time    0.00: real time    0.00
    --------------------------------------------
      LOOP:  cpu time    1.92: real time    1.92

 eigenvalue-minimisations  :   288
 total energy-change (2. order) :-0.4272763E+00  (-0.3324692E+00)
 number of electron   91.9999999 magnetization 
 augmentation part    -1.1413776 magnetization 

 Broyden mixing:
  rms(total) = 0.43507E-01    rms(broyden)= 0.43499E-01
  rms(prec ) = 0.13370E+00
  weight for this iteration     100.00

 Free energy of the ion-electron system (eV)
  ---------------------------------------------------
  alpha Z        PSCENC =        -7.38313139
  Ewald energy   TEWEN  =     -2161.76551634
  -1/2 Hartree   DENC   =       -45.45398150
  -exchange  EXHF       =         0.00000000
  -V(xc)+E(xc)   XCENC  =      -792.52716536
  PAW double counting   =      1085.57782289     -116.40479086
  entropy T*S    EENTRO =        -0.00817368
  eigenvalues    EBANDS =       296.98032543
  atomic energy  EATOM  =      1629.13144109
  ---------------------------------------------------
  free energy    TOTEN  =      -111.85316973 eV

  energy without entropy =     -111.84499605  energy(sigma->0) =     -111.85044517


--------------------------------------------------------------------------------------------------------




----------------------------------------- Iteration    2(   2)  ---------------------------------------


    POTLOK:  cpu time    0.15: real time    0.15
    SETDIJ:  cpu time    0.01: real time    0.01
    EDDIAG:  cpu time    0.30: real time    0.30
  RMM-DIIS:  cpu time    1.26: real time    1.26
    ORTHCH:  cpu time    0.02: real time    0.02
       DOS:  cpu time    0.00: real time    0.00
    CHARGE:  cpu time    0.19: real time    0.19
    MIXING:  cpu time    0.00: real time    0.00
    --------------------------------------------
      LOOP:  cpu time    1.94: real time    1.94

 eigenvalue-minimisations  :   292
 total energy-change (2. order) : 0.2158176E-01  (-0.5451846E-02)
 number of electron   91.9999999 magnetization 
 augmentation part    -1.1414636 magnetization 

 Broyden mixing:
  rms(total) = 0.15275E-01    rms(broyden)= 0.15274E-01
  rms(prec ) = 0.31480E-01
  weight for this iteration     100.00

 eigenvalues of (default mixing * dielectric matrix)
  average eigenvalue GAMMA=   1.3068
  1.3068

 Free energy of the ion-electron system (eV)
  ---------------------------------------------------
  alpha Z        PSCENC =        -7.38313139
  Ewald energy   TEWEN  =     -2161.76551634
  -1/2 Hartree   DENC   =       -44.95605886
  -exchange  EXHF       =         0.00000000
  -V(xc)+E(xc)   XCENC  =      -792.54403011
  PAW double counting   =      1085.27876794     -116.09464959
  entropy T*S    EENTRO =        -0.01355993
  eigenvalues    EBANDS =       296.51514921
  atomic energy  EATOM  =      1629.13144109
  ---------------------------------------------------
  free energy    TOTEN  =      -111.83158798 eV

  energy without entropy =     -111.81802805  energy(sigma->0) =     -111.82706800


--------------------------------------------------------------------------------------------------------




----------------------------------------- Iteration    2(   3)  ---------------------------------------


    POTLOK:  cpu time    0.15: real time    0.15
    SETDIJ:  cpu time    0.01: real time    0.01
    EDDIAG:  cpu time    0.30: real time    0.31
  RMM-DIIS:  cpu time    1.22: real time    1.22
    ORTHCH:  cpu time    0.02: real time    0.02
       DOS:  cpu time    0.00: real time    0.00
    CHARGE:  cpu time    0.19: real time    0.19
    MIXING:  cpu time    0.00: real time    0.00
    --------------------------------------------
      LOOP:  cpu time    1.90: real time    1.90

 eigenvalue-minimisations  :   288
 total energy-change (2. order) : 0.1146932E-02  (-0.4578360E-03)
 number of electron   91.9999999 magnetization 
 augmentation part    -1.1413100 magnetization 

 Broyden mixing:
  rms(total) = 0.70401E-02    rms(broyden)= 0.70400E-02
  rms(prec ) = 0.10747E-01
  weight for this iteration     100.00

[...]
     12       1.3453      2.00000
     13       1.3638      2.00000
     14       1.4060      2.00000
     15       1.5399      2.00000
     16       1.8136      2.00000
     17       1.9404      2.00000
     18       2.7009      2.00000
     19       2.7086      2.00000
     20       2.9043      2.00000
     21       3.5307      2.00000
     22       3.5918      2.00000
     23       3.6292      2.00000
     24       3.6774      2.00000
     25       3.7364      2.00000
     26       4.0507      2.00000
     27       4.5312      2.00000
     28       4.5584      2.00000
     29       4.6450      2.00000
     30       4.8076      2.00000
     31       4.8648      2.00000
     32       4.8705      2.00000
     33       4.9293      2.00000
     34       5.1106      2.00000
     35       5.2061      2.00000
     36       5.7269      2.00000
     37       5.8929      2.00000
     38       6.3555      2.00000
     39       6.7103      2.00000
     40       6.7756      2.00000
     41       6.7869      2.00000
     42       6.9446      2.00000
     43       6.9894      2.00000
     44       7.0941      2.00000
     45       7.1499      2.00000
     46       7.7895      1.63980
     47       7.8879      0.87054
     48       8.0063      0.10293
     49       8.0366      0.00990
     50       8.1623     -0.05970
     51       8.1989     -0.04321
     52       8.2075     -0.03933
     53       8.3734     -0.00227
     54       8.5363     -0.00003
     55       9.0571      0.00000
     56       9.1373      0.00000
     57       9.1882      0.00000
     58       9.3543      0.00000
     59       9.3720      0.00000
     60       9.5131      0.00000
     61       9.9707      0.00000
     62       9.9849      0.00000
     63      10.0641      0.00000
     64      10.1557      0.00000
     65      10.2035      0.00000
     66      10.2111      0.00000
     67      10.5181      0.00000
     68      10.6534      0.00000
     69      10.7818      0.00000
     70      10.9400      0.00000
     71      11.1028      0.00000
     72      11.2226      0.00000

 k-point   2 :      -0.2500    0.2500    0.2500
  band No.  band energies     occupation 
      1      -2.9858      2.00000
      2      -1.9503      2.00000
      3      -1.8155      2.00000
      4      -1.7219      2.00000
      5      -0.8251      2.00000
      6      -0.6097      2.00000
      7      -0.5483      2.00000
      8       0.2620      2.00000
      9       0.3985      2.00000
     10       0.4416      2.00000
     11       0.6993      2.00000
     12       1.3934      2.00000
     13       1.4284      2.00000
     14       1.4929      2.00000
     15       1.4934      2.00000
     16       1.7686      2.00000
     17       1.8427      2.00000
     18       2.6215      2.00000
     19       2.7732      2.00000
     20       2.8394      2.00000
     21       3.5380      2.00000
     22       3.5883      2.00000
     23       3.6343      2.00000
     24       3.6815      2.00000
     25       3.8116      2.00000
     26       3.9637      2.00000
     27       4.5979      2.00000
     28       4.6515      2.00000
     29       4.6785      2.00000
     30       4.6986      2.00000
     31       4.7167      2.00000
     32       4.9496      2.00000
     33       4.9734      2.00000
     34       5.0596      2.00000
     35       5.1748      2.00000
     36       5.7465      2.00000
     37       6.1169      2.00000
     38       6.1779      2.00000
     39       6.7064      2.00000
     40       6.7470      2.00000
     41       6.9173      2.00000
     42       7.0239      2.00000
     43       7.0334      2.00000
     44       7.0705      2.00000
     45       7.1415      2.00000
     46       7.8381      1.28689
     47       7.9570      0.35065
     48       7.9947      0.15017
     49       8.0673     -0.04440
     50       8.1488     -0.06485
     51       8.1722     -0.05546
     52       8.1881     -0.04817
     53       8.2171     -0.03512
     54       8.2638     -0.01835
     55       9.0954      0.00000
     56       9.1470      0.00000
     57       9.2734      0.00000
     58       9.3783      0.00000
     59       9.4079      0.00000
     60       9.4878      0.00000
     61       9.9682      0.00000
     62       9.9796      0.00000
     63      10.0424      0.00000
     64      10.0516      0.00000
     65      10.1425      0.00000
     66      10.2314      0.00000
     67      10.5557      0.00000
     68      10.5659      0.00000
     69      10.6822      0.00000
     70      10.9626      0.00000
     71      11.2632      0.00000
     72      11.3349      0.00000


--------------------------------------------------------------------------------------------------------


 soft charge-density along one line, spin component           1
         0         1         2         3         4         5         6         7         8         9
 total charge-density along one line
 
 pseudopotential strength for first ion, spin component:           1
  8.459  -0.006   0.000   0.000   0.000   0.000   0.000   0.000
 -0.006   0.000   0.000   0.000   0.000   0.000   0.000   0.000
  0.000   0.000   1.989   0.000   0.000  -0.026   0.000   0.000
  0.000   0.000   0.000   1.989   0.000   0.000  -0.026   0.000
  0.000   0.000   0.000   0.000   1.989   0.000   0.000  -0.026
  0.000   0.000  -0.026   0.000   0.000  -0.012   0.000   0.000
  0.000   0.000   0.000  -0.026   0.000   0.000  -0.012   0.000
  0.000   0.000   0.000   0.000  -0.026   0.000   0.000  -0.012
 total augmentation occupancy for first ion, spin component:           1
  1.306  -0.531   0.000   0.000   0.000   0.000   0.004   0.004
 -0.531   0.507   0.000   0.005   0.005   0.000  -0.003  -0.003
  0.000   0.000   0.752   0.000   0.000  -0.187   0.000   0.000
  0.000   0.005   0.000   0.765  -0.011   0.000  -0.192   0.005
  0.000   0.005   0.000  -0.011   0.765   0.000   0.005  -0.192
  0.000   0.000  -0.187   0.000   0.000   0.052   0.000   0.000
  0.004  -0.003   0.000  -0.192   0.005   0.000   0.054  -0.002
  0.004  -0.003   0.000   0.005  -0.192   0.000  -0.002   0.054


------------------------ aborting loop because EDIFF is reached ----------------------------------------




--------------------------------------------------------------------------------------------------------



  FREE ENERGIE OF THE ION-ELECTRON SYSTEM (eV)
  ---------------------------------------------------
  free  energy   TOTEN  =      -112.108833 eV

  energy  without entropy=     -112.103414  energy(sigma->0) =     -112.107027
 
    CHARGE:  cpu time    0.18: real time    0.18
    FORLOC:  cpu time    0.04: real time    0.04
    FORNL :  cpu time    0.48: real time    0.49
    STRESS:  cpu time    1.00: real time    1.00
    FORCOR:  cpu time    0.17: real time    0.17
    FORHAR:  cpu time    0.07: real time    0.07
    MIXING:  cpu time    0.00: real time    0.00

  FORCE on cell =-STRESS in cart. coord.  units (eV):
  Direction    XX          YY          ZZ          XY          YZ          ZX
  --------------------------------------------------------------------------------------
  Alpha Z    -7.38313    -7.38313    -7.38313
  Ewald    -722.79789  -730.88071  -722.79789     0.00000     0.00000     1.65541
  Hartree    14.48408     3.09102    14.48408     0.00000     0.00000     3.57448
  E(xc)    -260.98078  -261.28664  -260.98078     0.00000     0.00000     0.19116
  Local     -24.25104    -4.63415   -24.25104     0.00000     0.00000    -5.33573
  n-local   577.95537   580.74024   577.95524     0.43799    -0.98055    -1.83797
  augment   -30.51047   -30.71102   -30.51048     0.00000     0.00000     0.01077
  Kinetic   452.51769   457.13073   452.51780    -4.05737     0.31821     2.59989
  Fock        0.00000     0.00000     0.00000     0.00000     0.00000     0.00000
  -------------------------------------------------------------------------------------
  Total      -0.96618     6.06634    -0.96618     0.00000     0.00000     0.85801
  in kB      -2.92685    18.37667    -2.92685     0.00000     0.00000     2.59916
  external pressure =        4.17 kB  Pullay stress =        0.00 kB


 VOLUME and BASIS-vectors are now :
 -----------------------------------------------------------------------------
  energy-cutoff  :      300.00
  volume of cell :      528.90
      direct lattice vectors                 reciprocal lattice vectors
     8.087052000  0.000000000  0.000000000     0.123654454  0.000000000  0.000000000
     0.000000000  8.087052000  0.000000000     0.000000000  0.123654454  0.000000000
     0.000000000  0.000000000  8.087052000     0.000000000  0.000000000  0.123654454

  length of vectors
     8.087052000  8.087052000  8.087052000     0.123654454  0.123654454  0.123654454


 FORCES acting on ions
    electron-ion (+dipol)            ewald-force                    non-local-force                 convergence-correction
 -----------------------------------------------------------------------------------------------
   -.221E+01 0.834E-06 -.221E+01   0.208E+01 0.668E-04 0.208E+01   0.118E+00 0.000E+00 0.118E+00   -.173E-02 -.999E-06 -.173E-02
   -.208E+01 0.212E-07 -.208E+01   0.192E+01 0.164E-05 0.192E+01   0.169E+00 0.000E+00 0.169E+00   0.480E-02 -.487E-06 0.480E-02
   -.240E+01 -.103E+02 -.725E+01   0.208E+01 0.103E+02 0.733E+01   0.372E+00 0.170E-01 -.340E-01   0.157E-02 -.791E-03 -.311E-02
   -.725E+01 -.103E+02 -.240E+01   0.733E+01 0.103E+02 0.208E+01   -.340E-01 0.170E-01 0.372E+00   -.311E-02 -.790E-03 0.158E-02
   0.144E+01 0.398E-06 -.226E+01   -.174E+01 0.317E-04 0.161E+01   0.322E+00 0.000E+00 0.693E+00   -.135E-02 -.749E-06 -.819E-03
   0.226E+01 0.398E-06 -.144E+01   -.161E+01 0.317E-04 0.174E+01   -.693E+00 0.000E+00 -.322E+00   0.809E-03 -.749E-06 0.135E-02
   0.193E+01 -.510E+01 -.193E+01   -.194E+01 0.504E+01 0.194E+01   -.457E-02 0.114E+00 0.455E-02   -.114E-02 0.251E-02 0.113E-02
   0.711E+01 -.124E+02 -.711E+01   -.697E+01 0.126E+02 0.697E+01   -.131E+00 -.165E+00 0.131E+00   -.111E-02 0.132E-02 0.112E-02
   -.747E+01 0.865E-06 -.747E+01   0.736E+01 0.694E-04 0.736E+01   0.140E+00 0.000E+00 0.140E+00   -.315E-02 0.992E-06 -.315E-02
   -.240E+01 0.103E+02 -.725E+01   0.208E+01 -.103E+02 0.733E+01   0.372E+00 -.170E-01 -.340E-01   0.157E-02 0.791E-03 -.311E-02
   -.725E+01 0.103E+02 -.240E+01   0.733E+01 -.103E+02 0.208E+01   -.340E-01 -.170E-01 0.372E+00   -.311E-02 0.790E-03 0.157E-02
   0.648E+01 0.406E-06 -.648E+01   -.684E+01 0.325E-04 0.650E+01   0.341E+00 -.173E-17 0.333E-01   0.435E-02 0.717E-06 0.284E-02
   0.648E+01 0.406E-06 -.648E+01   -.650E+01 0.325E-04 0.684E+01   -.333E-01 0.000E+00 -.341E+00   -.283E-02 0.717E-06 -.436E-02
   0.193E+01 0.510E+01 -.193E+01   -.194E+01 -.504E+01 0.194E+01   -.457E-02 -.114E+00 0.455E-02   -.114E-02 -.251E-02 0.113E-02
   0.711E+01 0.124E+02 -.711E+01   -.697E+01 -.126E+02 0.697E+01   -.131E+00 0.165E+00 0.131E+00   -.111E-02 -.132E-02 0.112E-02
   -.226E+01 0.398E-06 0.144E+01   0.161E+01 0.317E-04 -.174E+01   0.693E+00 0.000E+00 0.322E+00   -.820E-03 -.749E-06 -.135E-02
   -.144E+01 0.398E-06 0.226E+01   0.174E+01 0.317E-04 -.161E+01   -.322E+00 0.000E+00 -.693E+00   0.135E-02 -.749E-06 0.808E-03
   -.711E+01 -.124E+02 0.711E+01   0.697E+01 0.126E+02 -.697E+01   0.131E+00 -.165E+00 -.131E+00   0.112E-02 0.132E-02 -.111E-02
   -.193E+01 -.510E+01 0.193E+01   0.194E+01 0.504E+01 -.194E+01   0.455E-02 0.114E+00 -.457E-02   0.113E-02 0.251E-02 -.114E-02
   0.208E+01 0.212E-07 0.208E+01   -.192E+01 0.164E-05 -.192E+01   -.169E+00 0.000E+00 -.169E+00   -.480E-02 -.487E-06 -.480E-02
   0.221E+01 0.834E-06 0.221E+01   -.208E+01 0.668E-04 -.208E+01   -.118E+00 0.000E+00 -.118E+00   0.173E-02 -.999E-06 0.173E-02
   0.725E+01 -.103E+02 0.240E+01   -.733E+01 0.103E+02 -.208E+01   0.340E-01 0.170E-01 -.372E+00   0.310E-02 -.797E-03 -.157E-02
   0.240E+01 -.103E+02 0.725E+01   -.208E+01 0.103E+02 -.733E+01   -.372E+00 0.170E-01 0.340E-01   -.157E-02 -.798E-03 0.310E-02
   -.648E+01 0.406E-06 0.648E+01   0.650E+01 0.325E-04 -.684E+01   0.333E-01 0.000E+00 0.341E+00   0.284E-02 0.717E-06 0.435E-02
   -.648E+01 0.406E-06 0.648E+01   0.684E+01 0.325E-04 -.650E+01   -.341E+00 0.520E-17 -.333E-01   -.436E-02 0.717E-06 -.283E-02
   -.711E+01 0.124E+02 0.711E+01   0.697E+01 -.126E+02 -.697E+01   0.131E+00 0.165E+00 -.131E+00   0.112E-02 -.132E-02 -.111E-02
   -.193E+01 0.510E+01 0.193E+01   0.194E+01 -.504E+01 -.194E+01   0.455E-02 -.114E+00 -.457E-02   0.113E-02 -.251E-02 -.114E-02
   0.747E+01 0.865E-06 0.747E+01   -.736E+01 0.694E-04 -.736E+01   -.140E+00 0.000E+00 -.140E+00   0.315E-02 0.992E-06 0.315E-02
   0.725E+01 0.103E+02 0.240E+01   -.733E+01 -.103E+02 -.208E+01   0.340E-01 -.170E-01 -.372E+00   0.310E-02 0.798E-03 -.157E-02
   0.240E+01 0.103E+02 0.725E+01   -.208E+01 -.103E+02 -.733E+01   -.372E+00 -.170E-01 0.340E-01   -.157E-02 0.798E-03 0.310E-02
   0.512E-04 0.163E-07 0.512E-04   -.415E-04 0.136E-05 -.415E-04   -.805E-05 0.000E+00 -.805E-05   -.130E-05 0.281E-06 -.130E-05
 -----------------------------------------------------------------------------------------------
   -.626E-04 0.356E-03 -.626E-04   -.148E-13 0.148E-13 -.628E-13   0.784E-04 -.104E-16 0.784E-04   -.502E-05 -.903E-06 -.502E-05
 
 
 POSITION                                       TOTAL-FORCE (eV/Angst)
 -----------------------------------------------------------------------------------
      8.09438      0.00000      8.09438        -0.016744      0.000000     -0.016744
      1.99628      0.00000      1.99628         0.020414      0.000000      0.020414
      2.01751      2.06675      8.12642         0.049062      0.070777      0.043539
      8.12642      2.06675      2.01751         0.043539      0.070777      0.049062
      4.04537      0.00000      7.97580         0.026491      0.000000      0.049115
      6.17654      0.00000      2.01992        -0.049115      0.000000     -0.026495
      6.09403      1.99977      8.05831        -0.014201      0.054124      0.014200
      4.13598      1.84461      1.92931         0.000173     -0.024193     -0.000179
      8.08692      4.04353      8.08692         0.029827      0.000000      0.029827
      2.01751      6.02030      8.12642         0.049062     -0.070777      0.043539
      8.12642      6.02030      2.01751         0.043539     -0.070777      0.049062
      4.03355      4.04353      0.02577        -0.018595      0.000000      0.051365
      6.03951      4.04353      2.03173        -0.051357      0.000000      0.018623
      6.09403      6.08729      8.05831        -0.014201     -0.054124      0.014200
      4.13598      6.24244      1.92931         0.000173      0.024193     -0.000179
      7.97580      0.00000      4.04537         0.049115      0.000000      0.026491
      2.01992      0.00000      6.17654        -0.026495      0.000000     -0.049115
      1.92931      1.84461      4.13598        -0.000179     -0.024193      0.000173
      8.05831      1.99977      6.09403         0.014200      0.054124     -0.014201
      4.06901      0.00000      4.06901        -0.020412      0.000000     -0.020412
      6.05796      0.00000      6.05796         0.016742      0.000000      0.016742
      6.02592      2.06675      4.04778        -0.043534      0.070777     -0.049076
      4.04778      2.06675      6.02592        -0.049076      0.070777     -0.043534
      0.02577      4.04353      4.03355         0.051365      0.000000     -0.018595
      2.03173      4.04353      6.03951         0.018623      0.000000     -0.051357
      1.92931      6.24244      4.13598        -0.000179      0.024193      0.000173
      8.05831      6.08729      6.09403         0.014200     -0.054124     -0.014201
      6.06543      4.04353      6.06543        -0.029828      0.000000     -0.029828
      6.02592      6.02030      4.04778        -0.043534     -0.070777     -0.049076
      4.04778      6.02030      6.02592        -0.049076     -0.070777     -0.043534
      3.03265      4.04353      3.03265         0.000000      0.000000      0.000000
 -----------------------------------------------------------------------------------
    total drift:                                0.000011      0.000355      0.000011
 d Force = 0.2036959E-01[ 0.132E-01, 0.275E-01]  d Energy = 0.2039322E-01-0.236E-04
 d Force = 0.2521347E+01[ 0.243E+01, 0.261E+01]  d Ewald  = 0.2521342E+01 0.419E-05


--------------------------------------------------------------------------------------------------------


    POTLOK:  cpu time    0.16: real time    0.16


--------------------------------------------------------------------------------------------------------


 NEB: the previous image is higher in energy: F
 NEB: the next image is higher in energy    : F
 NEB: image is at an extrema
 NEB: diff energy (min, max):   112.108833  112.108833

 NEB: Tangent
 ----------------------------------------------
     -0.00187      0.00000     -0.00187
      0.00297      0.00000      0.00297
      0.00457      0.01478      0.01566
      0.01566      0.01478      0.00457
      0.00147      0.00000      0.00146
      0.00147      0.00000      0.00147
     -0.00337      0.00000     -0.00337
     -0.01339      0.00001     -0.01337
      0.01622      0.00000      0.01622
      0.00457     -0.01478      0.01566
      0.01566     -0.01478      0.00457
     -0.01151      0.00000      0.01761
      0.01760      0.00000     -0.01150
     -0.00337      0.00000     -0.00337
     -0.01339     -0.00001     -0.01337
      0.00146      0.00000      0.00147
      0.00147      0.00000      0.00147
     -0.01337      0.00001     -0.01339
     -0.00337      0.00000     -0.00337
      0.00298      0.00000      0.00298
     -0.00188      0.00000     -0.00188
      0.01564     -0.01477      0.00456
      0.00456     -0.01477      0.01564
      0.01761      0.00000     -0.01151
     -0.01150      0.00000      0.01760
     -0.01337     -0.00001     -0.01339
     -0.00337      0.00000     -0.00337
      0.01620      0.00000      0.01620
      0.01564      0.01477      0.00456
      0.00456      0.01477      0.01564
      0.70417      0.00000      0.70417

 NEB: forces: par spring, perp REAL, dneb     0.000034    0.347725    0.000000
 NEB: distance to prev, next image, angle between     1.380835    1.380828  143.575111
 NEB: projections on to tangent (spring, REAL)    -0.000034    0.000007

  FORCES: max atom, RMS     0.096504    0.062453
  FORCE total and by dimension    0.347725    0.070777
 Quasi-Newton relaxation of ions (Broydens 2nd method)
  g(Force)  = 0.583E-02   g(Stress)= 0.000E+00

 retain information from N=  1 steps
 eigenvalues of (default step * inverse Hessian matrix)
  average eigenvalue of G=   3.4786
 eigenvalue spectrum of G is  3.4786


--------------------------------------------------------------------------------------------------------


  
 reached required accuracy - stopping structural energy minimisation
     LOOP+:  cpu time    7.21: real time    7.23
    4ORBIT:  cpu time    0.00: real time    0.00

 total amount of memory used by VASP on root node  60642. kBytes
========================================================================

   base      :    30000. kBytes
   nonl-proj :     4692. kBytes
   fftplans  :     2983. kBytes
   grid      :    21626. kBytes
   one-center:       95. kBytes
   wavefun   :     1246. kBytes
 
  
  
 General timing and accounting informations for this job:
 ========================================================
  
                  Total CPU time used (sec):       54.235
                            User time (sec):       54.121
                          System time (sec):        0.114
                         Elapsed time (sec):       54.465
  
                   Maximum memory used (kb):           0.
                   Average memory used (kb):           0.
  
                          Minor page faults:        23466
                          Major page faults:            0
                 Voluntary context switches:         2437
