  31  31   0   0
  0.1706119E+02  0.8087054E-09  0.8087054E-09  0.8087054E-09  0.5000000E-15
  1.000000000000000E-004
  CAR 
 unknown system                          
     12.03571574     -4.93424541  301      7.87784632      1.00000000
     -4.934  0.0000E+00  0.0000E+00
     -4.878  0.0000E+00  0.0000E+00
     -4.821  0.0000E+00  0.0000E+00
     -4.765  0.0000E+00  0.0000E+00
     -4.708  0.0000E+00  0.0000E+00
     -4.651  0.0000E+00  0.0000E+00
     -4.595  0.0000E+00  0.0000E+00
     -4.538 -0.9287E-26 -0.5253E-27
     -4.482 -0.7631E-24 -0.4369E-25
     -4.425 -0.5389E-22 -0.3092E-23
     -4.369 -0.3237E-20 -0.1862E-21
     -4.312 -0.1654E-18 -0.9542E-20
     -4.255 -0.7185E-17 -0.4159E-18
     -4.199 -0.2653E-15 -0.1542E-16
     -4.142 -0.8325E-14 -0.4863E-15
     -4.086 -0.2160E-12 -0.1271E-13
     -4.029 -0.4857E-11 -0.2874E-12
     -3.973 -0.9299E-10 -0.5548E-11
     -3.916 -0.1509E-08 -0.9090E-10
     -3.859 -0.2074E-07 -0.1264E-08
     -3.803 -0.2412E-06 -0.1491E-07
     -3.746 -0.2370E-05 -0.1490E-06
     -3.690 -0.1964E-04 -0.1260E-05
     -3.633 -0.1370E-03 -0.9010E-05
     -3.577 -0.8017E-03 -0.5436E-04
     -3.520 -0.3918E-02 -0.2760E-03
     -3.464 -0.1589E-01 -0.1175E-02
     -3.407 -0.5293E-01 -0.4169E-02
     -3.350 -0.1422E+00 -0.1221E-01
     -3.294 -0.2973E+00 -0.2903E-01
     -3.237 -0.4406E+00 -0.5395E-01
     -3.181 -0.2996E+00 -0.7090E-01
     -3.124  0.5801E+00 -0.3808E-01
     -3.068  0.2525E+01  0.1047E+00
     -3.011  0.5230E+01  0.4006E+00
     -2.954  0.7596E+01  0.8303E+00
     -2.898  0.8347E+01  0.1302E+01
     -2.841  0.7034E+01  0.1700E+01
     -2.785  0.4428E+01  0.1951E+01
     -2.728  0.1860E+01  0.2056E+01
     -2.672  0.2256E+00  0.2069E+01
     -2.615 -0.3941E+00  0.2046E+01
     -2.558 -0.4125E+00  0.2023E+01
     -2.502 -0.2493E+00  0.2009E+01
     -2.445 -0.1174E+00  0.2002E+01
     -2.389 -0.6977E-01  0.1998E+01
     -2.332 -0.1163E+00  0.1992E+01
     -2.276 -0.2881E+00  0.1976E+01
     -2.219 -0.6063E+00  0.1941E+01
     -2.162 -0.9298E+00  0.1889E+01
     -2.106 -0.7432E+00  0.1847E+01
     -2.049  0.8447E+00  0.1894E+01
     -1.993  0.4563E+01  0.2153E+01
     -1.936  0.1008E+02  0.2723E+01
     -1.880  0.1566E+02  0.3609E+01
     -1.823  0.1909E+02  0.4689E+01
     -1.767  0.1919E+02  0.5774E+01
     -1.710  0.1641E+02  0.6702E+01
     -1.653  0.1212E+02  0.7388E+01
     -1.597  0.7625E+01  0.7820E+01
     -1.540  0.3800E+01  0.8035E+01
     -1.484  0.1155E+01  0.8100E+01
     -1.427 -0.2123E+00  0.8088E+01
     -1.371 -0.6040E+00  0.8054E+01
     -1.314 -0.5082E+00  0.8025E+01
     -1.257 -0.3244E+00  0.8007E+01
     -1.201 -0.2632E+00  0.7992E+01
     -1.144 -0.4012E+00  0.7969E+01
     -1.088 -0.7065E+00  0.7929E+01
     -1.031 -0.9118E+00  0.7878E+01
     -0.975 -0.3488E+00  0.7858E+01
     -0.918  0.1888E+01  0.7965E+01
     -0.861  0.6183E+01  0.8314E+01
     -0.805  0.1153E+02  0.8966E+01
     -0.748  0.1569E+02  0.9854E+01
     -0.692  0.1683E+02  0.1081E+02
     -0.635  0.1511E+02  0.1166E+02
     -0.579  0.1233E+02  0.1236E+02
     -0.522  0.1005E+02  0.1293E+02
     -0.465  0.8295E+01  0.1340E+02
     -0.409  0.6322E+01  0.1375E+02
     -0.352  0.3903E+01  0.1397E+02
     -0.296  0.1625E+01  0.1407E+02
     -0.239  0.1396E+00  0.1407E+02
     -0.183 -0.4543E+00  0.1405E+02
     -0.126 -0.5272E+00  0.1402E+02
     -0.070 -0.5288E+00  0.1399E+02
     -0.013 -0.7319E+00  0.1395E+02
      0.044 -0.1114E+01  0.1388E+02
      0.100 -0.1194E+01  0.1382E+02
      0.157  0.7152E-01  0.1382E+02
      0.213  0.3863E+01  0.1404E+02
      0.270  0.1039E+02  0.1463E+02
      0.326  0.1794E+02  0.1564E+02
      0.383  0.2343E+02  0.1697E+02
      0.440  0.2457E+02  0.1836E+02
      0.496  0.2160E+02  0.1958E+02
      0.553  0.1673E+02  0.2053E+02
      0.609  0.1202E+02  0.2121E+02
      0.666  0.8132E+01  0.2167E+02
      0.722  0.4873E+01  0.2194E+02
      0.779  0.2215E+01  0.2207E+02
      0.836  0.4152E+00  0.2209E+02
      0.892 -0.4415E+00  0.2207E+02
      0.949 -0.6599E+00  0.2203E+02
      1.005 -0.7235E+00  0.2199E+02
      1.062 -0.9931E+00  0.2193E+02
      1.118 -0.1475E+01  0.2185E+02
      1.175 -0.1579E+01  0.2176E+02
      1.232  0.3871E-02  0.2176E+02
      1.288  0.4814E+01  0.2203E+02
      1.345  0.1334E+02  0.2279E+02
      1.401  0.2380E+02  0.2413E+02
      1.458  0.3242E+02  0.2597E+02
      1.514  0.3549E+02  0.2797E+02
      1.571  0.3172E+02  0.2977E+02
      1.627  0.2305E+02  0.3107E+02
      1.684  0.1341E+02  0.3183E+02
      1.741  0.6554E+01  0.3220E+02
      1.797  0.4095E+01  0.3243E+02
      1.854  0.5036E+01  0.3272E+02
      1.910  0.6817E+01  0.3310E+02
      1.967  0.7214E+01  0.3351E+02
      2.023  0.5674E+01  0.3383E+02
      2.080  0.3160E+01  0.3401E+02
      2.137  0.9592E+00  0.3406E+02
      2.193 -0.3356E+00  0.3405E+02
      2.250 -0.9230E+00  0.3399E+02
      2.306 -0.1221E+01  0.3392E+02
      2.363 -0.1240E+01  0.3385E+02
      2.419 -0.3050E+00  0.3384E+02
      2.476  0.2623E+01  0.3399E+02
      2.533  0.8003E+01  0.3444E+02
      2.589  0.1475E+02  0.3527E+02
      2.646  0.2032E+02  0.3642E+02
      2.702  0.2217E+02  0.3768E+02
      2.759  0.1950E+02  0.3878E+02
      2.815  0.1377E+02  0.3956E+02
      2.872  0.7482E+01  0.3998E+02
      2.929  0.2673E+01  0.4013E+02
      2.985  0.4222E-01  0.4013E+02
      3.042 -0.8434E+00  0.4009E+02
      3.098 -0.8453E+00  0.4004E+02
      3.155 -0.6913E+00  0.4000E+02
      3.211 -0.7861E+00  0.3996E+02
      3.268 -0.1214E+01  0.3989E+02
      3.324 -0.1641E+01  0.3979E+02
      3.381 -0.1091E+01  0.3973E+02
      3.438  0.1999E+01  0.3985E+02
      3.494  0.8949E+01  0.4035E+02
      3.551  0.1935E+02  0.4145E+02
      3.607  0.3015E+02  0.4315E+02
      3.664  0.3674E+02  0.4523E+02
      3.720  0.3588E+02  0.4726E+02
      3.777  0.2830E+02  0.4886E+02
      3.834  0.1837E+02  0.4990E+02
      3.890  0.1079E+02  0.5051E+02
      3.947  0.7391E+01  0.5093E+02
      4.003  0.6681E+01  0.5130E+02
      4.060  0.6122E+01  0.5165E+02
      4.116  0.4463E+01  0.5190E+02
      4.173  0.2111E+01  0.5202E+02
      4.230 -0.3042E-01  0.5202E+02
      4.286 -0.1535E+01  0.5193E+02
      4.343 -0.2288E+01  0.5181E+02
      4.399 -0.1671E+01  0.5171E+02
      4.456  0.1761E+01  0.5181E+02
      4.512  0.9298E+01  0.5234E+02
      4.569  0.2027E+02  0.5348E+02
      4.625  0.3129E+02  0.5525E+02
      4.682  0.3815E+02  0.5741E+02
      4.739  0.3911E+02  0.5962E+02
      4.795  0.3609E+02  0.6166E+02
      4.852  0.3225E+02  0.6349E+02
      4.908  0.2872E+02  0.6511E+02
      4.965  0.2450E+02  0.6650E+02
      5.021  0.1903E+02  0.6758E+02
      5.078  0.1361E+02  0.6835E+02
      5.135  0.9854E+01  0.6890E+02
      5.191  0.7806E+01  0.6934E+02
      5.248  0.6198E+01  0.6970E+02
      5.304  0.4098E+01  0.6993E+02
      5.361  0.1700E+01  0.7002E+02
      5.417 -0.2710E+00  0.7001E+02
      5.474 -0.1252E+01  0.6994E+02
      5.531 -0.8083E+00  0.6989E+02
      5.587  0.1596E+01  0.6998E+02
      5.644  0.6136E+01  0.7033E+02
      5.700  0.1171E+02  0.7099E+02
      5.757  0.1586E+02  0.7189E+02
      5.813  0.1625E+02  0.7281E+02
      5.870  0.1262E+02  0.7352E+02
      5.927  0.7054E+01  0.7392E+02
      5.983  0.2474E+01  0.7406E+02
      6.040  0.7408E+00  0.7410E+02
      6.096  0.1954E+01  0.7421E+02
      6.153  0.4803E+01  0.7448E+02
      6.209  0.7361E+01  0.7490E+02
      6.266  0.8063E+01  0.7536E+02
      6.322  0.6521E+01  0.7573E+02
      6.379  0.3592E+01  0.7593E+02
      6.436  0.6168E+00  0.7596E+02
      6.492 -0.1316E+01  0.7589E+02
      6.549 -0.1371E+01  0.7581E+02
      6.605  0.1297E+01  0.7588E+02
      6.662  0.7098E+01  0.7629E+02
      6.718  0.1503E+02  0.7714E+02
      6.775  0.2275E+02  0.7842E+02
      6.832  0.2834E+02  0.8003E+02
      6.888  0.3184E+02  0.8183E+02
      6.945  0.3428E+02  0.8377E+02
      7.001  0.3526E+02  0.8576E+02
      7.058  0.3265E+02  0.8761E+02
      7.114  0.2531E+02  0.8904E+02
      7.171  0.1520E+02  0.8990E+02
      7.228  0.6049E+01  0.9024E+02
      7.284  0.4208E+00  0.9027E+02
      7.341 -0.1662E+01  0.9017E+02
      7.397 -0.1755E+01  0.9007E+02
      7.454 -0.1403E+01  0.8999E+02
      7.510 -0.1346E+01  0.8992E+02
      7.567 -0.1441E+01  0.8984E+02
      7.624 -0.7859E+00  0.8979E+02
      7.680  0.1919E+01  0.8990E+02
      7.737  0.7397E+01  0.9032E+02
      7.793  0.1463E+02  0.9115E+02
      7.850  0.2096E+02  0.9233E+02
      7.906  0.2427E+02  0.9370E+02
      7.963  0.2528E+02  0.9513E+02
      8.019  0.2708E+02  0.9667E+02
      8.076  0.3169E+02  0.9846E+02
      8.133  0.3737E+02  0.1006E+03
      8.189  0.3996E+02  0.1028E+03
      8.246  0.3664E+02  0.1049E+03
      8.302  0.2819E+02  0.1065E+03
      8.359  0.1789E+02  0.1075E+03
      8.415  0.8957E+01  0.1080E+03
      8.472  0.2973E+01  0.1082E+03
      8.529 -0.8549E-01  0.1082E+03
      8.585 -0.1093E+01  0.1081E+03
      8.642 -0.1080E+01  0.1081E+03
      8.698 -0.8408E+00  0.1080E+03
      8.755 -0.8239E+00  0.1080E+03
      8.811 -0.1124E+01  0.1079E+03
      8.868 -0.1381E+01  0.1078E+03
      8.925 -0.6290E+00  0.1078E+03
      8.981  0.2448E+01  0.1079E+03
      9.038  0.8456E+01  0.1084E+03
      9.094  0.1608E+02  0.1093E+03
      9.151  0.2234E+02  0.1106E+03
      9.207  0.2502E+02  0.1120E+03
      9.264  0.2478E+02  0.1134E+03
      9.321  0.2431E+02  0.1148E+03
      9.377  0.2496E+02  0.1162E+03
      9.434  0.2499E+02  0.1176E+03
      9.490  0.2177E+02  0.1188E+03
      9.547  0.1502E+02  0.1197E+03
      9.603  0.7244E+01  0.1201E+03
      9.660  0.1273E+01  0.1202E+03
      9.716 -0.1695E+01  0.1201E+03
      9.773 -0.1904E+01  0.1200E+03
      9.830  0.2447E+00  0.1200E+03
      9.886  0.4545E+01  0.1202E+03
      9.943  0.1015E+02  0.1208E+03
      9.999  0.1495E+02  0.1216E+03
     10.056  0.1654E+02  0.1226E+03
     10.112  0.1406E+02  0.1234E+03
     10.169  0.8978E+01  0.1239E+03
     10.226  0.3882E+01  0.1241E+03
     10.282  0.5721E+00  0.1241E+03
     10.339 -0.7348E+00  0.1241E+03
     10.395 -0.8177E+00  0.1240E+03
     10.452 -0.5052E+00  0.1240E+03
     10.508 -0.2287E+00  0.1240E+03
     10.565 -0.8158E-01  0.1240E+03
     10.622 -0.2362E-01  0.1240E+03
     10.678 -0.5643E-02  0.1240E+03
     10.735 -0.1122E-02  0.1240E+03
     10.791 -0.1869E-03  0.1240E+03
     10.848 -0.2616E-04  0.1240E+03
     10.904 -0.3088E-05  0.1240E+03
     10.961 -0.3080E-06  0.1240E+03
     11.018 -0.2600E-07  0.1240E+03
     11.074 -0.1859E-08  0.1240E+03
     11.131 -0.1128E-09  0.1240E+03
     11.187 -0.5810E-11  0.1240E+03
     11.244 -0.2512E-12  0.1240E+03
     11.300 -0.7851E-14  0.1240E+03
     11.357  0.0000E+00  0.1240E+03
     11.413  0.0000E+00  0.1240E+03
     11.470  0.0000E+00  0.1240E+03
     11.527  0.0000E+00  0.1240E+03
     11.583  0.0000E+00  0.1240E+03
     11.640  0.0000E+00  0.1240E+03
     11.696  0.0000E+00  0.1240E+03
     11.753  0.0000E+00  0.1240E+03
     11.809  0.0000E+00  0.1240E+03
     11.866  0.0000E+00  0.1240E+03
     11.923  0.0000E+00  0.1240E+03
     11.979  0.0000E+00  0.1240E+03
     12.036  0.0000E+00  0.1240E+03
