   31   31    1    1
  0.1706119E+02  0.8087054E-09  0.8087054E-09  0.8087054E-09  0.5000000E-15
  1.000000000000000E-004
  CAR 
 unknown system                          
   93    1   62
 
  0.2500000E+00  0.2500000E+00  0.2500000E+00  0.1000000E+01
   1       -2.934245
   2       -1.858912
   3       -1.858912
   4       -1.686653
   5       -0.743849
   6       -0.743849
   7       -0.497482
   8        0.359624
   9        0.359624
  10        0.426621
  11        0.604903
  12        1.428014
  13        1.428014
  14        1.456332
  15        1.563142
  16        1.563142
  17        1.907771
  18        2.634087
  19        2.634087
  20        2.752009
  21        3.594834
  22        3.594835
  23        3.695963
  24        3.697096
  25        3.697096
  26        3.989009
  27        4.622158
  28        4.622158
  29        4.653540
  30        4.717157
  31        4.717157
  32        4.910249
  33        4.910249
  34        4.915258
  35        5.174076
  36        5.763192
  37        5.763192
  38        6.222732
  39        6.776550
  40        6.793295
  41        6.793295
  42        6.970737
  43        7.022979
  44        7.030851
  45        7.030851
  46        7.834838
  47        7.881323
  48        7.881323
  49        8.096397
  50        8.096397
  51        8.154897
  52        8.195488
  53        8.195488
  54        8.318551
  55        9.149217
  56        9.149230
  57        9.180524
  58        9.408866
  59        9.409375
  60        9.434856
  61       10.005653
  62       10.035716
