<?xml version="1.0" encoding="ISO-8859-1"?>
<modeling>
 <generator>
  <i name="program" type="string">vasp </i>
  <i name="version" type="string">5.2.2  </i>
  <i name="subversion" type="string">15Apr09 complex  parallel </i>
  <i name="platform" type="string">LinuxIFC </i>
  <i name="date" type="string">2014 04 24 </i>
  <i name="time" type="string">10:17:45 </i>
 </generator>
 <incar>
  <i type="string" name="PREC">accurate</i>
  <i type="int" name="IALGO">    48</i>
  <i type="int" name="IBRION">    -1</i>
  <i name="EDIFFG">      0.05000000</i>
  <i type="int" name="NSW">     0</i>
  <i type="int" name="ISIF">     2</i>
  <i name="ENCUT">    300.00000000</i>
  <i name="NELECT">     93.00000000</i>
  <i type="int" name="ISMEAR">     1</i>
  <i name="SIGMA">      0.20000000</i>
  <i type="logical" name="LWAVE"> F  </i>
  <i type="logical" name="LCHARG"> F  </i>
  <i type="logical" name="LPEAD"> F  </i>
  <i type="logical" name="LCALCPOL"> F  </i>
  <i type="logical" name="LCALCEPS"> F  </i>
  <v name="EFIELD_PEAD">      0.00000000      0.00000000      0.00000000</v>
  <i type="logical" name="LEFG"> F  </i>
 </incar>
 <kpoints>
  <generation param="Monkhorst-Pack">
   <v type="int" name="divisions">       2        2        2 </v>
   <v name="usershift">      0.00000000       0.00000000       0.00000000 </v>
   <v name="genvec1">      0.50000000       0.00000000       0.00000000 </v>
   <v name="genvec2">      0.00000000       0.50000000       0.00000000 </v>
   <v name="genvec3">      0.00000000       0.00000000       0.50000000 </v>
   <v name="shift">      0.50000000       0.50000000       0.50000000 </v>
  </generation>
  <varray name="kpointlist" >
   <v>       0.25000000       0.25000000       0.25000000 </v>
  </varray>
  <varray name="weights" >
   <v>       1.00000000 </v>
  </varray>
 </kpoints>
 <parameters>
  <separator name="general" >
   <i type="string" name="SYSTEM">unknown system</i>
   <i type="logical" name="LCOMPAT"> F  </i>
  </separator>
  <separator name="electronic" >
   <i type="string" name="PREC">accura</i>
   <i name="ENMAX">    300.00000000</i>
   <i name="ENAUG">    291.05200000</i>
   <i name="EDIFF">      0.00010000</i>
   <i type="int" name="IALGO">    48</i>
   <i type="int" name="IWAVPR">    10</i>
   <i type="int" name="NBANDS">    62</i>
   <i name="NELECT">     93.00000000</i>
   <separator name="electronic smearing" >
    <i type="int" name="ISMEAR">     1</i>
    <i name="SIGMA">      0.20000000</i>
   </separator>
   <separator name="electronic projectors" >
    <i type="logical" name="LREAL"> F  </i>
    <v name="ROPT">      0.00000000</v>
    <i type="int" name="LMAXPAW">  -100</i>
    <i type="int" name="LMAXMIX">     2</i>
   </separator>
   <separator name="electronic startup" >
    <i type="int" name="ISTART">     0</i>
    <i type="int" name="ICHARG">     2</i>
    <i type="int" name="INIWAV">     1</i>
   </separator>
   <separator name="electronic spin" >
    <i type="int" name="ISPIN">     1</i>
    <i type="logical" name="LNONCOLLINEAR"> F  </i>
    <v name="MAGMOM">      1.00000000      1.00000000      1.00000000      1.00000000      1.00000000      1.00000000      1.00000000      1.00000000      1.00000000      1.00000000      1.00000000      1.00000000      1.00000000      1.00000000      1.00000000      1.00000000      1.00000000      1.00000000      1.00000000      1.00000000
      1.00000000      1.00000000      1.00000000      1.00000000      1.00000000      1.00000000      1.00000000      1.00000000      1.00000000      1.00000000      1.00000000</v>
    <i name="NUPDOWN">     -1.00000000</i>
    <i type="logical" name="LSORBIT"> F  </i>
    <v name="SAXIS">      0.00000000      0.00000000      1.00000000</v>
    <i type="logical" name="LSPIRAL"> F  </i>
    <v name="QSPIRAL">      0.00000000      0.00000000      0.00000000</v>
    <i type="logical" name="LZEROZ"> F  </i>
   </separator>
   <separator name="electronic exchange-correlation" >
    <i type="logical" name="LASPH"> F  </i>
    <i type="logical" name="LMETAGGA"> F  </i>
   </separator>
   <separator name="electronic convergence" >
    <i type="int" name="NELM">    60</i>
    <i type="int" name="NELMDL">   -12</i>
    <i type="int" name="NELMIN">     2</i>
    <i name="ENINI">    300.00000000</i>
    <separator name="electronic convergence detail" >
     <i type="logical" name="LDIAG"> T  </i>
     <i name="WEIMIN">      0.00000000</i>
     <i name="EBREAK">      0.00000040</i>
     <i name="DEPER">      0.30000000</i>
     <i type="int" name="NRMM">     4</i>
     <i name="TIME">      0.40000000</i>
    </separator>
   </separator>
   <separator name="electronic mixer" >
    <i name="AMIX">      0.40000000</i>
    <i name="BMIX">      1.00000000</i>
    <i name="AMIN">      0.10000000</i>
    <i name="AMIX_MAG">      1.60000000</i>
    <i name="BMIX_MAG">      1.00000000</i>
    <separator name="electronic mixer details" >
     <i type="int" name="IMIX">     4</i>
     <i type="int" name="MAXMIX">   -45</i>
     <i name="WC">    100.00000000</i>
     <i type="int" name="INIMIX">     1</i>
     <i type="int" name="MIXPRE">     1</i>
     <i type="int" name="MREMOVE">     5</i>
    </separator>
   </separator>
   <separator name="electronic dipolcorrection" >
    <i type="logical" name="LDIPOL"> F  </i>
    <i type="logical" name="LMONO"> F  </i>
    <i type="int" name="IDIPOL">     0</i>
    <i name="EPSILON">      1.00000000</i>
    <v name="DIPOL">   -100.00000000   -100.00000000   -100.00000000</v>
    <i name="EFIELD">      0.00000000</i>
   </separator>
  </separator>
  <separator name="grids" >
   <i type="int" name="NGX">    48</i>
   <i type="int" name="NGY">    48</i>
   <i type="int" name="NGZ">    48</i>
   <i type="int" name="NGXF">    96</i>
   <i type="int" name="NGYF">    96</i>
   <i type="int" name="NGZF">    96</i>
   <i type="logical" name="ADDGRID"> F  </i>
  </separator>
  <separator name="ionic" >
   <i type="int" name="NSW">     0</i>
   <i type="int" name="IBRION">    -1</i>
   <i type="int" name="ISIF">     2</i>
   <i name="PSTRESS">      0.00000000</i>
   <i name="EDIFFG">      0.05000000</i>
   <i type="int" name="NFREE">     0</i>
   <i name="POTIM">      0.50000000</i>
   <i name="SMASS">     -3.00000000</i>
  </separator>
  <separator name="ionic md" >
   <i name="TEBEG">      0.00010000</i>
   <i name="TEEND">      0.00010000</i>
   <i type="int" name="NBLOCK">     1</i>
   <i type="int" name="KBLOCK">     1</i>
   <i type="int" name="NPACO">   256</i>
   <i name="APACO">     16.00000000</i>
  </separator>
  <separator name="symmetry" >
   <i type="int" name="ISYM">     2</i>
   <i name="SYMPREC">      0.00001000</i>
  </separator>
  <separator name="dos" >
   <i type="logical" name="LORBIT"> F  </i>
   <v name="RWIGS">     -1.00000000</v>
   <i type="int" name="NEDOS">   301</i>
   <i name="EMIN">     10.00000000</i>
   <i name="EMAX">    -10.00000000</i>
   <i name="EFERMI">      0.00000000</i>
  </separator>
  <separator name="writing" >
   <i type="int" name="NWRITE">     2</i>
   <i type="logical" name="LWAVE"> F  </i>
   <i type="logical" name="LCHARG"> F  </i>
   <i type="logical" name="LPARD"> F  </i>
   <i type="logical" name="LVTOT"> F  </i>
   <i type="logical" name="LELF"> F  </i>
   <i type="logical" name="LOPTICS"> F  </i>
   <v name="STM">      0.00000000      0.00000000      0.00000000      0.00000000      0.00000000</v>
  </separator>
  <separator name="performance" >
   <i type="int" name="NPAR">     1</i>
   <i type="int" name="NSIM">     4</i>
   <i type="int" name="NBLK">    32</i>
   <i type="logical" name="LPLANE"> T  </i>
   <i type="logical" name="LSCALAPACK"> F  </i>
   <i type="logical" name="LSCAAWARE"> F  </i>
   <i type="logical" name="LSCALU"> F  </i>
   <i type="logical" name="LASYNC"> F  </i>
  </separator>
  <separator name="miscellaneous" >
   <i type="int" name="IDIOT">     3</i>
   <i type="logical" name="LMUSIC"> F  </i>
   <v name="POMASS">     26.98200000</v>
   <i type="logical" name="LCORR"> T  </i>
  </separator>
  <i type="logical" name="LREAL_COMPAT"> F  </i>
  <i type="logical" name="GGA_COMPAT"> T  </i>
  <i type="logical" name="LBERRY"> F  </i>
  <i type="int" name="ICORELEVEL">     0</i>
  <i type="logical" name="LDAU"> F  </i>
  <i type="int" name="I_CONSTRAINED_M">     0</i>
  <separator name="electronic exchange-correlation" >
   <i type="string" name="GGA">--</i>
   <i type="int" name="VOSKOWN">     0</i>
   <i type="logical" name="LHFCALC"> F  </i>
   <i type="logical" name="LHFONE"> F  </i>
   <i type="logical" name="LRHFCALC"> F  </i>
   <i type="logical" name="LTHOMAS"> F  </i>
   <i type="logical" name="LMODELHF"> F  </i>
   <i name="ENCUTFOCK">      0.00000000</i>
   <i name="ENCUT4O">     -1.00000000</i>
   <i type="int" name="EXXOEP">     0</i>
   <i type="int" name="FOURORBIT">     0</i>
   <i name="AEXX">      0.00000000</i>
   <i name="HFALPHA">      0.00000000</i>
   <i name="ALDAX">      1.00000000</i>
   <i name="AGGAX">      1.00000000</i>
   <i name="ALDAC">      1.00000000</i>
   <i name="AGGAC">      1.00000000</i>
   <i type="int" name="NKREDX">     1</i>
   <i type="int" name="NKREDY">     1</i>
   <i type="int" name="NKREDZ">     1</i>
   <i type="logical" name="SHIFTRED"> F  </i>
   <i type="logical" name="ODDONLY"> F  </i>
   <i type="logical" name="EVENONLY"> F  </i>
   <i type="int" name="LMAXFOCK">     0</i>
   <i type="int" name="NMAXFOCKAE">     0</i>
   <i name="HFSCREEN">      0.00000000</i>
   <i name="HFSCREENC">      0.00000000</i>
  </separator>
  <separator name="model GW" >
   <i type="int" name="MODEL_GW">     0</i>
   <i name="MODEL_EPS0">     10.23671437</i>
   <i name="MODEL_ALPHA">      1.00000000</i>
  </separator>
  <separator name="linear response parameters" >
   <i type="logical" name="LEPSILON"> F  </i>
   <i type="logical" name="LRPA"> F  </i>
   <i type="logical" name="LNABLA"> F  </i>
   <i type="logical" name="LVEL"> F  </i>
   <i type="int" name="KINTER">     0</i>
   <i name="CSHIFT">      0.10000000</i>
   <i name="OMEGAMAX">     -1.00000000</i>
  </separator>
  <separator name="orbital magnetization" >
   <i type="logical" name="ORBITALMAG"> F  </i>
   <i type="logical" name="LMAGBLOCH"> F  </i>
   <i type="logical" name="LCHIMAG"> F  </i>
   <i type="logical" name="LGAUGE"> T  </i>
   <i type="int" name="MAGATOM">     0</i>
   <v name="MAGDIPOL">      0.00000000      0.00000000      0.00000000</v>
   <v name="AVECCONST">      0.00000000      0.00000000      0.00000000</v>
  </separator>
  <separator name="response functions" >
   <i type="logical" name="LRPA"> T  </i>
   <i type="logical" name="LTCTE"> F  </i>
   <i type="logical" name="LTETE"> F  </i>
   <i type="logical" name="L2ORDER"> F  </i>
   <i type="logical" name="LGWLF"> F  </i>
   <i name="ENCUTGW">    200.00000000</i>
   <i name="ENCUTGWSOFT">     -2.00000000</i>
   <i name="ENCUTLF">     -1.00000000</i>
   <i type="int" name="LMAXMP2">    -1</i>
   <i name="SCISSOR">      0.00000000</i>
   <i type="int" name="NOMEGA">     0</i>
   <i type="int" name="NOMEGAR">     0</i>
   <i type="int" name="NBANDSGW">    -1</i>
   <i type="int" name="NBANDSLF">    -1</i>
   <i type="int" name="NELM">     1</i>
   <i type="int" name="DIM">     3</i>
   <i type="int" name="ANTIRES">     0</i>
   <i type="logical" name="LUSEW"> F  </i>
   <i name="OMEGAMAX">    -30.00000000</i>
   <i name="OMEGATL">   -200.00000000</i>
   <i type="int" name="OMEGAGRID">     0</i>
   <i name="CSHIFT">     -0.10000000</i>
   <i type="logical" name="SELFENERGY"> F  </i>
   <i type="logical" name="LSPECTRAL"> F  </i>
   <i type="logical" name="ODDONLYGW"> F  </i>
   <i type="logical" name="EVENONLYGW"> F  </i>
   <i type="int" name="NKREDLFX">     1</i>
   <i type="int" name="NKREDLFY">     1</i>
   <i type="int" name="NKREDLFZ">     1</i>
   <i type="int" name="MAXMEM">  1024</i>
   <i type="int" name="TELESCOPE">     0</i>
  </separator>
 </parameters>
 <atominfo>
  <atoms>      31 </atoms>
  <types>       1 </types>
  <array name="atoms" >
   <dimension dim="1">ion</dimension>
   <field type="string">element</field>
   <field type="int">atomtype</field>
   <set>
    <rc><c>Al</c><c>   1</c></rc>
    <rc><c>Al</c><c>   1</c></rc>
    <rc><c>Al</c><c>   1</c></rc>
    <rc><c>Al</c><c>   1</c></rc>
    <rc><c>Al</c><c>   1</c></rc>
    <rc><c>Al</c><c>   1</c></rc>
    <rc><c>Al</c><c>   1</c></rc>
    <rc><c>Al</c><c>   1</c></rc>
    <rc><c>Al</c><c>   1</c></rc>
    <rc><c>Al</c><c>   1</c></rc>
    <rc><c>Al</c><c>   1</c></rc>
    <rc><c>Al</c><c>   1</c></rc>
    <rc><c>Al</c><c>   1</c></rc>
    <rc><c>Al</c><c>   1</c></rc>
    <rc><c>Al</c><c>   1</c></rc>
    <rc><c>Al</c><c>   1</c></rc>
    <rc><c>Al</c><c>   1</c></rc>
    <rc><c>Al</c><c>   1</c></rc>
    <rc><c>Al</c><c>   1</c></rc>
    <rc><c>Al</c><c>   1</c></rc>
    <rc><c>Al</c><c>   1</c></rc>
    <rc><c>Al</c><c>   1</c></rc>
    <rc><c>Al</c><c>   1</c></rc>
    <rc><c>Al</c><c>   1</c></rc>
    <rc><c>Al</c><c>   1</c></rc>
    <rc><c>Al</c><c>   1</c></rc>
    <rc><c>Al</c><c>   1</c></rc>
    <rc><c>Al</c><c>   1</c></rc>
    <rc><c>Al</c><c>   1</c></rc>
    <rc><c>Al</c><c>   1</c></rc>
    <rc><c>Al</c><c>   1</c></rc>
   </set>
  </array>
  <array name="atomtypes" >
   <dimension dim="1">type</dimension>
   <field type="int">atomspertype</field>
   <field type="string">element</field>
   <field>mass</field>
   <field>valence</field>
   <field type="string">pseudopotential</field>
   <set>
    <rc><c>  31</c><c>Al</c><c>     26.98200000</c><c>      3.00000000</c><c> PAW_PBE Al 04Jan2001                   </c></rc>
   </set>
  </array>
 </atominfo>
 <structure name="initialpos" >
  <crystal>
   <varray name="basis" >
    <v>       8.08705400       0.00000000       0.00000000 </v>
    <v>       0.00000000       8.08705400       0.00000000 </v>
    <v>       0.00000000       0.00000000       8.08705400 </v>
   </varray>
   <i name="volume">    528.89690930 </i>
   <varray name="rec_basis" >
    <v>       0.12365442       0.00000000       0.00000000 </v>
    <v>       0.00000000       0.12365442       0.00000000 </v>
    <v>       0.00000000       0.00000000       0.12365442 </v>
   </varray>
  </crystal>
  <varray name="positions" >
   <v>       0.00000000       0.00000000       0.00000000 </v>
   <v>       0.24945200       0.00000000       0.24945200 </v>
   <v>       0.24945200       0.24945200       0.00000000 </v>
   <v>       0.00000000       0.24945200       0.24945200 </v>
   <v>       0.50000000       0.00000000       0.00000000 </v>
   <v>       0.75054800       0.00000000       0.24945200 </v>
   <v>       0.75054800       0.24945200       0.00000000 </v>
   <v>       0.50000000       0.25322100       0.25322100 </v>
   <v>       0.00000000       0.50000000       0.00000000 </v>
   <v>       0.25322100       0.50000000       0.25322100 </v>
   <v>       0.24945200       0.75054800       0.00000000 </v>
   <v>       0.00000000       0.75054800       0.24945200 </v>
   <v>       0.50000000       0.50000000       0.00000000 </v>
   <v>       0.74677900       0.50000000       0.25322100 </v>
   <v>       0.75054800       0.75054800       0.00000000 </v>
   <v>       0.50000000       0.74677900       0.25322100 </v>
   <v>       0.00000000       0.00000000       0.50000000 </v>
   <v>       0.24945200       0.00000000       0.75054800 </v>
   <v>       0.25322100       0.25322100       0.50000000 </v>
   <v>       0.00000000       0.24945200       0.75054800 </v>
   <v>       0.50000000       0.00000000       0.50000000 </v>
   <v>       0.75054800       0.00000000       0.75054800 </v>
   <v>       0.74677900       0.25322100       0.50000000 </v>
   <v>       0.50000000       0.25322100       0.74677900 </v>
   <v>       0.00000000       0.50000000       0.50000000 </v>
   <v>       0.25322100       0.50000000       0.74677900 </v>
   <v>       0.25322100       0.74677900       0.50000000 </v>
   <v>       0.00000000       0.75054800       0.75054800 </v>
   <v>       0.74677900       0.50000000       0.74677900 </v>
   <v>       0.74677900       0.74677900       0.50000000 </v>
   <v>       0.50000000       0.74677900       0.74677900 </v>
  </varray>
 </structure>
 <calculation>
  <scstep>
   <time name="diag">    2.26    1.49</time>
   <time name="diis">   11.87    3.58</time>
   <time name="orth">    0.16    0.04</time>
   <time name="total">   16.33    7.03</time>
   <energy>
    <i name="alphaZ">     -6.10292531 </i>
    <i name="ewald">  -2232.04189804 </i>
    <i name="hartreedc">    -17.07714254 </i>
    <i name="XCdc">   -814.85524565 </i>
    <i name="pawpsdc">   1102.18190231 </i>
    <i name="pawaedc">   -111.56847430 </i>
    <i name="eentropy">     -0.04114507 </i>
    <i name="bandstr">    725.52629749 </i>
    <i name="atom">   1659.66634407 </i>
    <i name="e_fr_energy">    305.68771296 </i>
    <i name="e_wo_entrp">    305.72885803 </i>
    <i name="e_0_energy">    305.70142798 </i>
   </energy>
  </scstep>
  <scstep>
   <time name="diag">    2.13    1.46</time>
   <time name="diis">   11.48    3.61</time>
   <time name="orth">    0.17    0.04</time>
   <time name="total">   13.78    5.12</time>
   <energy>
    <i name="e_fr_energy">    -12.22922408 </i>
    <i name="e_wo_entrp">    -12.23537312 </i>
    <i name="e_0_energy">    -12.23127376 </i>
   </energy>
  </scstep>
  <scstep>
   <time name="diag">    2.09    1.46</time>
   <time name="diis">   11.27    3.51</time>
   <time name="orth">    0.17    0.04</time>
   <time name="total">   13.53    5.01</time>
   <energy>
    <i name="e_fr_energy">    -86.29483753 </i>
    <i name="e_wo_entrp">    -86.23465274 </i>
    <i name="e_0_energy">    -86.27477593 </i>
   </energy>
  </scstep>
  <scstep>
   <time name="diag">    2.04    1.44</time>
   <time name="diis">   11.31    3.52</time>
   <time name="orth">    0.17    0.04</time>
   <time name="total">   13.52    5.01</time>
   <energy>
    <i name="e_fr_energy">   -103.88012618 </i>
    <i name="e_wo_entrp">   -103.81766049 </i>
    <i name="e_0_energy">   -103.85930428 </i>
   </energy>
  </scstep>
  <scstep>
   <time name="diag">    2.25    1.50</time>
   <time name="diis">   11.51    3.54</time>
   <time name="orth">    0.17    0.04</time>
   <time name="total">   13.94    5.08</time>
   <energy>
    <i name="e_fr_energy">   -110.91252021 </i>
    <i name="e_wo_entrp">   -110.90265075 </i>
    <i name="e_0_energy">   -110.90923039 </i>
   </energy>
  </scstep>
  <scstep>
   <time name="diag">    2.19    1.48</time>
   <time name="diis">   11.63    3.55</time>
   <time name="orth">    0.17    0.04</time>
   <time name="total">   13.99    5.07</time>
   <energy>
    <i name="e_fr_energy">   -113.37091800 </i>
    <i name="e_wo_entrp">   -113.31101376 </i>
    <i name="e_0_energy">   -113.35094992 </i>
   </energy>
  </scstep>
  <scstep>
   <time name="diag">    2.19    1.47</time>
   <time name="diis">   11.71    3.56</time>
   <time name="orth">    0.17    0.04</time>
   <time name="total">   14.07    5.08</time>
   <energy>
    <i name="e_fr_energy">   -114.39068153 </i>
    <i name="e_wo_entrp">   -114.30735919 </i>
    <i name="e_0_energy">   -114.36290741 </i>
   </energy>
  </scstep>
  <scstep>
   <time name="diag">    2.11    1.47</time>
   <time name="diis">   11.87    3.60</time>
   <time name="orth">    1.82    0.60</time>
   <time name="total">   15.81    5.67</time>
   <energy>
    <i name="e_fr_energy">   -114.87255880 </i>
    <i name="e_wo_entrp">   -114.78112587 </i>
    <i name="e_0_energy">   -114.84208116 </i>
   </energy>
  </scstep>
  <scstep>
   <time name="diag">    2.23    1.64</time>
   <time name="diis">   30.42    8.85</time>
   <time name="orth">    0.16    0.04</time>
   <time name="total">   32.81   10.53</time>
   <energy>
    <i name="e_fr_energy">   -115.33275001 </i>
    <i name="e_wo_entrp">   -115.26355755 </i>
    <i name="e_0_energy">   -115.30968586 </i>
   </energy>
  </scstep>
  <scstep>
   <time name="diag">    2.33    1.68</time>
   <time name="diis">   28.94    8.40</time>
   <time name="orth">    0.16    0.04</time>
   <time name="total">   31.45   10.12</time>
   <energy>
    <i name="e_fr_energy">   -115.42272632 </i>
    <i name="e_wo_entrp">   -115.37155312 </i>
    <i name="e_0_energy">   -115.40566859 </i>
   </energy>
  </scstep>
  <scstep>
   <time name="diag">    2.54    1.75</time>
   <time name="diis">   23.83    7.02</time>
   <time name="orth">    0.16    0.04</time>
   <time name="total">   26.54    8.81</time>
   <energy>
    <i name="e_fr_energy">   -115.42864415 </i>
    <i name="e_wo_entrp">   -115.37810615 </i>
    <i name="e_0_energy">   -115.41179815 </i>
   </energy>
  </scstep>
  <scstep>
   <time name="diag">    2.32    1.68</time>
   <time name="diis">   20.86    6.05</time>
   <time name="orth">    0.16    0.04</time>
   <time name="total">   24.61    8.94</time>
   <energy>
    <i name="e_fr_energy">   -115.42867543 </i>
    <i name="e_wo_entrp">   -115.37801394 </i>
    <i name="e_0_energy">   -115.41178827 </i>
   </energy>
  </scstep>
  <scstep>
   <time name="diag">    2.62    1.84</time>
   <time name="diis">   25.31    7.50</time>
   <time name="orth">    0.17    0.04</time>
   <time name="total">   31.59   12.77</time>
   <energy>
    <i name="e_fr_energy">   -114.89262171 </i>
    <i name="e_wo_entrp">   -114.84295261 </i>
    <i name="e_0_energy">   -114.87606535 </i>
   </energy>
  </scstep>
  <scstep>
   <time name="diag">    2.62    1.85</time>
   <time name="diis">   26.76    8.02</time>
   <time name="orth">    0.17    0.04</time>
   <time name="total">   33.01   13.26</time>
   <energy>
    <i name="e_fr_energy">   -114.62722507 </i>
    <i name="e_wo_entrp">   -114.57690996 </i>
    <i name="e_0_energy">   -114.61045336 </i>
   </energy>
  </scstep>
  <scstep>
   <time name="diag">    2.62    1.84</time>
   <time name="diis">   27.21    7.97</time>
   <time name="orth">    0.17    0.04</time>
   <time name="total">   33.55   13.23</time>
   <energy>
    <i name="e_fr_energy">   -114.60382677 </i>
    <i name="e_wo_entrp">   -114.55362600 </i>
    <i name="e_0_energy">   -114.58709318 </i>
   </energy>
  </scstep>
  <scstep>
   <time name="diag">    2.62    1.84</time>
   <time name="diis">   25.30    7.56</time>
   <time name="orth">    0.16    0.04</time>
   <time name="total">   31.75   12.86</time>
   <energy>
    <i name="e_fr_energy">   -114.60315651 </i>
    <i name="e_wo_entrp">   -114.55287573 </i>
    <i name="e_0_energy">   -114.58639625 </i>
   </energy>
  </scstep>
  <scstep>
   <time name="diag">    2.61    1.84</time>
   <time name="diis">   20.50    6.03</time>
   <time name="orth">    0.16    0.04</time>
   <time name="total">   25.68   10.17</time>
   <energy>
    <i name="alphaZ">     -6.10292531 </i>
    <i name="ewald">  -2232.04189804 </i>
    <i name="hartreedc">    -19.27939211 </i>
    <i name="XCdc">   -811.44300395 </i>
    <i name="pawpsdc">   1106.80610970 </i>
    <i name="pawaedc">   -116.60462963 </i>
    <i name="eentropy">     -0.05020506 </i>
    <i name="bandstr">    304.44641466 </i>
    <i name="atom">   1659.66634407 </i>
    <i name="e_fr_energy">   -114.60318567 </i>
    <i name="e_wo_entrp">   -114.55298061 </i>
    <i name="e_0_energy">   -114.58645065 </i>
   </energy>
  </scstep>
  <structure>
   <crystal>
    <varray name="basis" >
     <v>       8.08705400       0.00000000       0.00000000 </v>
     <v>       0.00000000       8.08705400       0.00000000 </v>
     <v>       0.00000000       0.00000000       8.08705400 </v>
    </varray>
    <i name="volume">    528.89690930 </i>
    <varray name="rec_basis" >
     <v>       0.12365442       0.00000000       0.00000000 </v>
     <v>       0.00000000       0.12365442       0.00000000 </v>
     <v>       0.00000000       0.00000000       0.12365442 </v>
    </varray>
   </crystal>
   <varray name="positions" >
    <v>       0.00000000       0.00000000       0.00000000 </v>
    <v>       0.24945200       0.00000000       0.24945200 </v>
    <v>       0.24945200       0.24945200       0.00000000 </v>
    <v>       0.00000000       0.24945200       0.24945200 </v>
    <v>       0.50000000       0.00000000       0.00000000 </v>
    <v>       0.75054800       0.00000000       0.24945200 </v>
    <v>       0.75054800       0.24945200       0.00000000 </v>
    <v>       0.50000000       0.25322100       0.25322100 </v>
    <v>       0.00000000       0.50000000       0.00000000 </v>
    <v>       0.25322100       0.50000000       0.25322100 </v>
    <v>       0.24945200       0.75054800       0.00000000 </v>
    <v>       0.00000000       0.75054800       0.24945200 </v>
    <v>       0.50000000       0.50000000       0.00000000 </v>
    <v>       0.74677900       0.50000000       0.25322100 </v>
    <v>       0.75054800       0.75054800       0.00000000 </v>
    <v>       0.50000000       0.74677900       0.25322100 </v>
    <v>       0.00000000       0.00000000       0.50000000 </v>
    <v>       0.24945200       0.00000000       0.75054800 </v>
    <v>       0.25322100       0.25322100       0.50000000 </v>
    <v>       0.00000000       0.24945200       0.75054800 </v>
    <v>       0.50000000       0.00000000       0.50000000 </v>
    <v>       0.75054800       0.00000000       0.75054800 </v>
    <v>       0.74677900       0.25322100       0.50000000 </v>
    <v>       0.50000000       0.25322100       0.74677900 </v>
    <v>       0.00000000       0.50000000       0.50000000 </v>
    <v>       0.25322100       0.50000000       0.74677900 </v>
    <v>       0.25322100       0.74677900       0.50000000 </v>
    <v>       0.00000000       0.75054800       0.75054800 </v>
    <v>       0.74677900       0.50000000       0.74677900 </v>
    <v>       0.74677900       0.74677900       0.50000000 </v>
    <v>       0.50000000       0.74677900       0.74677900 </v>
   </varray>
  </structure>
  <varray name="forces" >
   <v>       0.00000000       0.00000000       0.00000000 </v>
   <v>       0.02198570       0.00000000       0.02198570 </v>
   <v>       0.02198570       0.02198570       0.00000000 </v>
   <v>       0.00000000       0.02198570       0.02198570 </v>
   <v>       0.00000000       0.00000000       0.00000000 </v>
   <v>      -0.02198570       0.00000000       0.02198570 </v>
   <v>      -0.02198570       0.02198570       0.00000000 </v>
   <v>       0.00000000      -0.02340285      -0.02340285 </v>
   <v>       0.00000000       0.00000000       0.00000000 </v>
   <v>      -0.02340285       0.00000000      -0.02340285 </v>
   <v>       0.02198570      -0.02198570       0.00000000 </v>
   <v>       0.00000000      -0.02198570       0.02198570 </v>
   <v>       0.00000000       0.00000000       0.00000000 </v>
   <v>       0.02340285       0.00000000      -0.02340285 </v>
   <v>      -0.02198570      -0.02198570       0.00000000 </v>
   <v>       0.00000000       0.02340285      -0.02340285 </v>
   <v>       0.00000000       0.00000000       0.00000000 </v>
   <v>       0.02198570       0.00000000      -0.02198570 </v>
   <v>      -0.02340285      -0.02340285       0.00000000 </v>
   <v>       0.00000000       0.02198570      -0.02198570 </v>
   <v>       0.00000000       0.00000000       0.00000000 </v>
   <v>      -0.02198570       0.00000000      -0.02198570 </v>
   <v>       0.02340285      -0.02340285       0.00000000 </v>
   <v>       0.00000000      -0.02340285       0.02340285 </v>
   <v>       0.00000000       0.00000000       0.00000000 </v>
   <v>      -0.02340285       0.00000000       0.02340285 </v>
   <v>      -0.02340285       0.02340285       0.00000000 </v>
   <v>       0.00000000      -0.02198570      -0.02198570 </v>
   <v>       0.02340285       0.00000000       0.02340285 </v>
   <v>       0.02340285       0.02340285       0.00000000 </v>
   <v>       0.00000000       0.02340285       0.02340285 </v>
  </varray>
  <varray name="stress" >
   <v>      -7.88912675       0.00000000       0.00000000 </v>
   <v>       0.00000000      -7.88912675       0.00000000 </v>
   <v>       0.00000000       0.00000000      -7.88912675 </v>
  </varray>
  <energy>
   <i name="e_fr_energy">   -114.60318567 </i>
   <i name="e_wo_entrp">   -114.58645065 </i>
   <i name="e_0_energy">     -0.05020506 </i>
  </energy>
  <time name="totalsc">  417.55  161.01</time>
  <eigenvalues>
   <array>
    <dimension dim="1">band</dimension>
    <dimension dim="2">kpoint</dimension>
    <dimension dim="3">spin</dimension>
    <field>eigene</field>
    <field>occ</field>
    <set>
     <set comment="spin 1">
      <set comment="kpoint 1">
       <r>   -2.9342    1.0000 </r>
       <r>   -1.8589    1.0000 </r>
       <r>   -1.8589    1.0000 </r>
       <r>   -1.6867    1.0000 </r>
       <r>   -0.7438    1.0000 </r>
       <r>   -0.7438    1.0000 </r>
       <r>   -0.4975    1.0000 </r>
       <r>    0.3596    1.0000 </r>
       <r>    0.3596    1.0000 </r>
       <r>    0.4266    1.0000 </r>
       <r>    0.6049    1.0000 </r>
       <r>    1.4280    1.0000 </r>
       <r>    1.4280    1.0000 </r>
       <r>    1.4563    1.0000 </r>
       <r>    1.5631    1.0000 </r>
       <r>    1.5631    1.0000 </r>
       <r>    1.9078    1.0000 </r>
       <r>    2.6341    1.0000 </r>
       <r>    2.6341    1.0000 </r>
       <r>    2.7520    1.0000 </r>
       <r>    3.5948    1.0000 </r>
       <r>    3.5948    1.0000 </r>
       <r>    3.6960    1.0000 </r>
       <r>    3.6971    1.0000 </r>
       <r>    3.6971    1.0000 </r>
       <r>    3.9890    1.0000 </r>
       <r>    4.6222    1.0000 </r>
       <r>    4.6222    1.0000 </r>
       <r>    4.6535    1.0000 </r>
       <r>    4.7172    1.0000 </r>
       <r>    4.7172    1.0000 </r>
       <r>    4.9102    1.0000 </r>
       <r>    4.9102    1.0000 </r>
       <r>    4.9153    1.0000 </r>
       <r>    5.1741    1.0000 </r>
       <r>    5.7632    1.0000 </r>
       <r>    5.7632    1.0000 </r>
       <r>    6.2227    1.0000 </r>
       <r>    6.7765    1.0000 </r>
       <r>    6.7933    1.0000 </r>
       <r>    6.7933    1.0000 </r>
       <r>    6.9707    1.0000 </r>
       <r>    7.0230    1.0000 </r>
       <r>    7.0309    1.0000 </r>
       <r>    7.0309    1.0000 </r>
       <r>    7.8348    0.6774 </r>
       <r>    7.8813    0.4853 </r>
       <r>    7.8813    0.4853 </r>
       <r>    8.0964   -0.0323 </r>
       <r>    8.0964   -0.0323 </r>
       <r>    8.1549   -0.0323 </r>
       <r>    8.1955   -0.0236 </r>
       <r>    8.1955   -0.0236 </r>
       <r>    8.3186   -0.0039 </r>
       <r>    9.1492    0.0000 </r>
       <r>    9.1492    0.0000 </r>
       <r>    9.1805    0.0000 </r>
       <r>    9.4089    0.0000 </r>
       <r>    9.4094    0.0000 </r>
       <r>    9.4349    0.0000 </r>
       <r>   10.0057    0.0000 </r>
       <r>   10.0357    0.0000 </r>
      </set>
     </set>
    </set>
   </array>
  </eigenvalues>
  <separator name="orbital magnetization" >
   <v name="MAGDIPOLOUT">      0.00000000      0.00000000      0.00000000</v>
  </separator>
  <dos>
   <i name="efermi">      7.87784632 </i>
   <total>
    <array>
     <dimension dim="1">gridpoints</dimension>
     <dimension dim="2">spin</dimension>
     <field>energy</field>
     <field>total</field>
     <field>integrated</field>
     <set>
      <set comment="spin 1">
       <r>  -4.9342   0.0000   0.0000 </r>
       <r>  -4.8777   0.0000   0.0000 </r>
       <r>  -4.8211   0.0000   0.0000 </r>
       <r>  -4.7645   0.0000   0.0000 </r>
       <r>  -4.7080   0.0000   0.0000 </r>
       <r>  -4.6514   0.0000   0.0000 </r>
       <r>  -4.5948   0.0000   0.0000 </r>
       <r>  -4.5383   0.0000   0.0000 </r>
       <r>  -4.4817   0.0000   0.0000 </r>
       <r>  -4.4251   0.0000   0.0000 </r>
       <r>  -4.3686   0.0000   0.0000 </r>
       <r>  -4.3120   0.0000   0.0000 </r>
       <r>  -4.2554   0.0000   0.0000 </r>
       <r>  -4.1989   0.0000   0.0000 </r>
       <r>  -4.1423   0.0000   0.0000 </r>
       <r>  -4.0857   0.0000   0.0000 </r>
       <r>  -4.0292   0.0000   0.0000 </r>
       <r>  -3.9726   0.0000   0.0000 </r>
       <r>  -3.9160   0.0000   0.0000 </r>
       <r>  -3.8595   0.0000   0.0000 </r>
       <r>  -3.8029   0.0000   0.0000 </r>
       <r>  -3.7463   0.0000   0.0000 </r>
       <r>  -3.6898   0.0000   0.0000 </r>
       <r>  -3.6332  -0.0001   0.0000 </r>
       <r>  -3.5766  -0.0008  -0.0001 </r>
       <r>  -3.5201  -0.0039  -0.0003 </r>
       <r>  -3.4635  -0.0159  -0.0012 </r>
       <r>  -3.4069  -0.0529  -0.0042 </r>
       <r>  -3.3504  -0.1422  -0.0122 </r>
       <r>  -3.2938  -0.2973  -0.0290 </r>
       <r>  -3.2372  -0.4406  -0.0540 </r>
       <r>  -3.1807  -0.2996  -0.0709 </r>
       <r>  -3.1241   0.5801  -0.0381 </r>
       <r>  -3.0675   2.5246   0.1047 </r>
       <r>  -3.0110   5.2298   0.4006 </r>
       <r>  -2.9544   7.5964   0.8303 </r>
       <r>  -2.8979   8.3471   1.3024 </r>
       <r>  -2.8413   7.0343   1.7003 </r>
       <r>  -2.7847   4.4285   1.9508 </r>
       <r>  -2.7282   1.8595   2.0560 </r>
       <r>  -2.6716   0.2256   2.0688 </r>
       <r>  -2.6150  -0.3941   2.0465 </r>
       <r>  -2.5585  -0.4125   2.0232 </r>
       <r>  -2.5019  -0.2493   2.0091 </r>
       <r>  -2.4453  -0.1174   2.0024 </r>
       <r>  -2.3888  -0.0698   1.9985 </r>
       <r>  -2.3322  -0.1163   1.9919 </r>
       <r>  -2.2756  -0.2881   1.9756 </r>
       <r>  -2.2191  -0.6063   1.9413 </r>
       <r>  -2.1625  -0.9298   1.8887 </r>
       <r>  -2.1059  -0.7432   1.8467 </r>
       <r>  -2.0494   0.8447   1.8944 </r>
       <r>  -1.9928   4.5634   2.1526 </r>
       <r>  -1.9362  10.0816   2.7229 </r>
       <r>  -1.8797  15.6624   3.6088 </r>
       <r>  -1.8231  19.0907   4.6887 </r>
       <r>  -1.7665  19.1884   5.7741 </r>
       <r>  -1.7100  16.4114   6.7025 </r>
       <r>  -1.6534  12.1242   7.3883 </r>
       <r>  -1.5968   7.6253   7.8196 </r>
       <r>  -1.5403   3.8002   8.0346 </r>
       <r>  -1.4837   1.1547   8.0999 </r>
       <r>  -1.4271  -0.2123   8.0879 </r>
       <r>  -1.3706  -0.6040   8.0537 </r>
       <r>  -1.3140  -0.5082   8.0250 </r>
       <r>  -1.2574  -0.3244   8.0066 </r>
       <r>  -1.2009  -0.2632   7.9918 </r>
       <r>  -1.1443  -0.4012   7.9691 </r>
       <r>  -1.0877  -0.7065   7.9291 </r>
       <r>  -1.0312  -0.9118   7.8775 </r>
       <r>  -0.9746  -0.3488   7.8578 </r>
       <r>  -0.9180   1.8882   7.9646 </r>
       <r>  -0.8615   6.1831   8.3144 </r>
       <r>  -0.8049  11.5260   8.9663 </r>
       <r>  -0.7483  15.6861   9.8537 </r>
       <r>  -0.6918  16.8292  10.8056 </r>
       <r>  -0.6352  15.1070  11.6602 </r>
       <r>  -0.5786  12.3315  12.3577 </r>
       <r>  -0.5221  10.0459  12.9260 </r>
       <r>  -0.4655   8.2952  13.3952 </r>
       <r>  -0.4089   6.3220  13.7528 </r>
       <r>  -0.3524   3.9028  13.9736 </r>
       <r>  -0.2958   1.6253  14.0655 </r>
       <r>  -0.2392   0.1396  14.0734 </r>
       <r>  -0.1827  -0.4543  14.0477 </r>
       <r>  -0.1261  -0.5272  14.0179 </r>
       <r>  -0.0695  -0.5288  13.9880 </r>
       <r>  -0.0130  -0.7319  13.9466 </r>
       <r>   0.0436  -1.1143  13.8836 </r>
       <r>   0.1002  -1.1936  13.8161 </r>
       <r>   0.1567   0.0715  13.8201 </r>
       <r>   0.2133   3.8631  14.0386 </r>
       <r>   0.2699  10.3934  14.6265 </r>
       <r>   0.3264  17.9443  15.6416 </r>
       <r>   0.3830  23.4335  16.9671 </r>
       <r>   0.4396  24.5712  18.3570 </r>
       <r>   0.4961  21.6016  19.5790 </r>
       <r>   0.5527  16.7343  20.5256 </r>
       <r>   0.6093  12.0244  21.2058 </r>
       <r>   0.6658   8.1322  21.6658 </r>
       <r>   0.7224   4.8733  21.9414 </r>
       <r>   0.7790   2.2151  22.0667 </r>
       <r>   0.8355   0.4152  22.0902 </r>
       <r>   0.8921  -0.4415  22.0652 </r>
       <r>   0.9487  -0.6599  22.0279 </r>
       <r>   1.0052  -0.7235  21.9870 </r>
       <r>   1.0618  -0.9931  21.9308 </r>
       <r>   1.1184  -1.4754  21.8474 </r>
       <r>   1.1749  -1.5794  21.7580 </r>
       <r>   1.2315   0.0039  21.7582 </r>
       <r>   1.2881   4.8142  22.0305 </r>
       <r>   1.3446  13.3394  22.7851 </r>
       <r>   1.4012  23.7999  24.1314 </r>
       <r>   1.4578  32.4194  25.9652 </r>
       <r>   1.5143  35.4889  27.9727 </r>
       <r>   1.5709  31.7207  29.7671 </r>
       <r>   1.6275  23.0471  31.0708 </r>
       <r>   1.6840  13.4147  31.8296 </r>
       <r>   1.7406   6.5539  32.2003 </r>
       <r>   1.7972   4.0945  32.4319 </r>
       <r>   1.8537   5.0361  32.7168 </r>
       <r>   1.9103   6.8170  33.1024 </r>
       <r>   1.9669   7.2144  33.5105 </r>
       <r>   2.0234   5.6739  33.8314 </r>
       <r>   2.0800   3.1601  34.0102 </r>
       <r>   2.1366   0.9592  34.0645 </r>
       <r>   2.1931  -0.3356  34.0455 </r>
       <r>   2.2497  -0.9230  33.9933 </r>
       <r>   2.3063  -1.2215  33.9242 </r>
       <r>   2.3628  -1.2404  33.8540 </r>
       <r>   2.4194  -0.3050  33.8368 </r>
       <r>   2.4760   2.6227  33.9851 </r>
       <r>   2.5325   8.0027  34.4378 </r>
       <r>   2.5891  14.7519  35.2723 </r>
       <r>   2.6457  20.3200  36.4217 </r>
       <r>   2.7022  22.1652  37.6755 </r>
       <r>   2.7588  19.5033  38.7787 </r>
       <r>   2.8154  13.7675  39.5575 </r>
       <r>   2.8719   7.4815  39.9807 </r>
       <r>   2.9285   2.6734  40.1319 </r>
       <r>   2.9851   0.0422  40.1343 </r>
       <r>   3.0416  -0.8434  40.0866 </r>
       <r>   3.0982  -0.8453  40.0388 </r>
       <r>   3.1548  -0.6913  39.9997 </r>
       <r>   3.2113  -0.7861  39.9552 </r>
       <r>   3.2679  -1.2140  39.8866 </r>
       <r>   3.3245  -1.6409  39.7937 </r>
       <r>   3.3810  -1.0913  39.7320 </r>
       <r>   3.4376   1.9995  39.8451 </r>
       <r>   3.4942   8.9492  40.3513 </r>
       <r>   3.5507  19.3491  41.4458 </r>
       <r>   3.6073  30.1504  43.1514 </r>
       <r>   3.6639  36.7370  45.2294 </r>
       <r>   3.7204  35.8777  47.2589 </r>
       <r>   3.7770  28.3026  48.8599 </r>
       <r>   3.8336  18.3652  49.8987 </r>
       <r>   3.8901  10.7870  50.5089 </r>
       <r>   3.9467   7.3905  50.9270 </r>
       <r>   4.0033   6.6812  51.3049 </r>
       <r>   4.0598   6.1221  51.6512 </r>
       <r>   4.1164   4.4632  51.9037 </r>
       <r>   4.1730   2.1113  52.0231 </r>
       <r>   4.2295  -0.0304  52.0214 </r>
       <r>   4.2861  -1.5346  51.9346 </r>
       <r>   4.3427  -2.2879  51.8052 </r>
       <r>   4.3992  -1.6710  51.7107 </r>
       <r>   4.4558   1.7611  51.8103 </r>
       <r>   4.5124   9.2982  52.3362 </r>
       <r>   4.5689  20.2677  53.4827 </r>
       <r>   4.6255  31.2884  55.2526 </r>
       <r>   4.6821  38.1495  57.4106 </r>
       <r>   4.7386  39.1063  59.6227 </r>
       <r>   4.7952  36.0910  61.6642 </r>
       <r>   4.8518  32.2512  63.4886 </r>
       <r>   4.9083  28.7209  65.1132 </r>
       <r>   4.9649  24.4988  66.4990 </r>
       <r>   5.0215  19.0331  67.5757 </r>
       <r>   5.0780  13.6114  68.3456 </r>
       <r>   5.1346   9.8538  68.9030 </r>
       <r>   5.1912   7.8061  69.3446 </r>
       <r>   5.2477   6.1981  69.6952 </r>
       <r>   5.3043   4.0983  69.9270 </r>
       <r>   5.3609   1.6997  70.0232 </r>
       <r>   5.4174  -0.2710  70.0078 </r>
       <r>   5.4740  -1.2523  69.9370 </r>
       <r>   5.5306  -0.8083  69.8913 </r>
       <r>   5.5871   1.5956  69.9815 </r>
       <r>   5.6437   6.1359  70.3286 </r>
       <r>   5.7003  11.7099  70.9910 </r>
       <r>   5.7568  15.8555  71.8879 </r>
       <r>   5.8134  16.2505  72.8071 </r>
       <r>   5.8700  12.6163  73.5208 </r>
       <r>   5.9265   7.0540  73.9198 </r>
       <r>   5.9831   2.4741  74.0598 </r>
       <r>   6.0397   0.7408  74.1017 </r>
       <r>   6.0962   1.9538  74.2122 </r>
       <r>   6.1528   4.8025  74.4838 </r>
       <r>   6.2094   7.3615  74.9003 </r>
       <r>   6.2659   8.0630  75.3563 </r>
       <r>   6.3225   6.5207  75.7252 </r>
       <r>   6.3791   3.5921  75.9284 </r>
       <r>   6.4356   0.6168  75.9633 </r>
       <r>   6.4922  -1.3165  75.8888 </r>
       <r>   6.5488  -1.3714  75.8112 </r>
       <r>   6.6053   1.2972  75.8846 </r>
       <r>   6.6619   7.0977  76.2861 </r>
       <r>   6.7185  15.0325  77.1364 </r>
       <r>   6.7750  22.7534  78.4235 </r>
       <r>   6.8316  28.3363  80.0264 </r>
       <r>   6.8882  31.8358  81.8273 </r>
       <r>   6.9447  34.2842  83.7666 </r>
       <r>   7.0013  35.2613  85.7612 </r>
       <r>   7.0579  32.6480  87.6080 </r>
       <r>   7.1144  25.3133  89.0399 </r>
       <r>   7.1710  15.2003  89.8997 </r>
       <r>   7.2276   6.0486  90.2418 </r>
       <r>   7.2841   0.4208  90.2656 </r>
       <r>   7.3407  -1.6625  90.1716 </r>
       <r>   7.3973  -1.7553  90.0723 </r>
       <r>   7.4538  -1.4033  89.9929 </r>
       <r>   7.5104  -1.3458  89.9168 </r>
       <r>   7.5670  -1.4409  89.8353 </r>
       <r>   7.6235  -0.7859  89.7909 </r>
       <r>   7.6801   1.9191  89.8994 </r>
       <r>   7.7367   7.3971  90.3178 </r>
       <r>   7.7932  14.6287  91.1453 </r>
       <r>   7.8498  20.9635  92.3312 </r>
       <r>   7.9064  24.2711  93.7041 </r>
       <r>   7.9629  25.2792  95.1340 </r>
       <r>   8.0195  27.0803  96.6659 </r>
       <r>   8.0761  31.6861  98.4583 </r>
       <r>   8.1326  37.3698 100.5721 </r>
       <r>   8.1892  39.9587 102.8325 </r>
       <r>   8.2458  36.6384 104.9050 </r>
       <r>   8.3023  28.1890 106.4995 </r>
       <r>   8.3589  17.8909 107.5116 </r>
       <r>   8.4155   8.9574 108.0182 </r>
       <r>   8.4720   2.9729 108.1864 </r>
       <r>   8.5286  -0.0855 108.1816 </r>
       <r>   8.5852  -1.0933 108.1197 </r>
       <r>   8.6417  -1.0800 108.0586 </r>
       <r>   8.6983  -0.8408 108.0111 </r>
       <r>   8.7549  -0.8239 107.9645 </r>
       <r>   8.8114  -1.1239 107.9009 </r>
       <r>   8.8680  -1.3809 107.8228 </r>
       <r>   8.9246  -0.6290 107.7872 </r>
       <r>   8.9811   2.4480 107.9257 </r>
       <r>   9.0377   8.4564 108.4040 </r>
       <r>   9.0943  16.0766 109.3134 </r>
       <r>   9.1508  22.3449 110.5774 </r>
       <r>   9.2074  25.0190 111.9926 </r>
       <r>   9.2640  24.7778 113.3942 </r>
       <r>   9.3205  24.3144 114.7696 </r>
       <r>   9.3771  24.9627 116.1817 </r>
       <r>   9.4337  24.9895 117.5952 </r>
       <r>   9.4902  21.7676 118.8266 </r>
       <r>   9.5468  15.0240 119.6764 </r>
       <r>   9.6034   7.2440 120.0862 </r>
       <r>   9.6599   1.2735 120.1582 </r>
       <r>   9.7165  -1.6953 120.0623 </r>
       <r>   9.7731  -1.9038 119.9546 </r>
       <r>   9.8296   0.2447 119.9685 </r>
       <r>   9.8862   4.5452 120.2256 </r>
       <r>   9.9428  10.1459 120.7995 </r>
       <r>   9.9993  14.9470 121.6450 </r>
       <r>  10.0559  16.5390 122.5806 </r>
       <r>  10.1125  14.0600 123.3759 </r>
       <r>  10.1690   8.9782 123.8837 </r>
       <r>  10.2256   3.8818 124.1033 </r>
       <r>  10.2822   0.5721 124.1357 </r>
       <r>  10.3387  -0.7348 124.0941 </r>
       <r>  10.3953  -0.8177 124.0479 </r>
       <r>  10.4519  -0.5052 124.0193 </r>
       <r>  10.5084  -0.2287 124.0063 </r>
       <r>  10.5650  -0.0816 124.0017 </r>
       <r>  10.6216  -0.0236 124.0004 </r>
       <r>  10.6781  -0.0056 124.0001 </r>
       <r>  10.7347  -0.0011 124.0000 </r>
       <r>  10.7913  -0.0002 124.0000 </r>
       <r>  10.8478   0.0000 124.0000 </r>
       <r>  10.9044   0.0000 124.0000 </r>
       <r>  10.9610   0.0000 124.0000 </r>
       <r>  11.0175   0.0000 124.0000 </r>
       <r>  11.0741   0.0000 124.0000 </r>
       <r>  11.1307   0.0000 124.0000 </r>
       <r>  11.1872   0.0000 124.0000 </r>
       <r>  11.2438   0.0000 124.0000 </r>
       <r>  11.3004   0.0000 124.0000 </r>
       <r>  11.3569   0.0000 124.0000 </r>
       <r>  11.4135   0.0000 124.0000 </r>
       <r>  11.4701   0.0000 124.0000 </r>
       <r>  11.5266   0.0000 124.0000 </r>
       <r>  11.5832   0.0000 124.0000 </r>
       <r>  11.6397   0.0000 124.0000 </r>
       <r>  11.6963   0.0000 124.0000 </r>
       <r>  11.7529   0.0000 124.0000 </r>
       <r>  11.8094   0.0000 124.0000 </r>
       <r>  11.8660   0.0000 124.0000 </r>
       <r>  11.9226   0.0000 124.0000 </r>
       <r>  11.9791   0.0000 124.0000 </r>
       <r>  12.0357   0.0000 124.0000 </r>
      </set>
     </set>
    </array>
   </total>
  </dos>
 </calculation>
 <structure name="finalpos" >
  <crystal>
   <varray name="basis" >
    <v>       8.08705400       0.00000000       0.00000000 </v>
    <v>       0.00000000       8.08705400       0.00000000 </v>
    <v>       0.00000000       0.00000000       8.08705400 </v>
   </varray>
   <i name="volume">    528.89690930 </i>
   <varray name="rec_basis" >
    <v>       0.12365442       0.00000000       0.00000000 </v>
    <v>       0.00000000       0.12365442       0.00000000 </v>
    <v>       0.00000000       0.00000000       0.12365442 </v>
   </varray>
  </crystal>
  <varray name="positions" >
   <v>       0.00000000       0.00000000       0.00000000 </v>
   <v>       0.24945200       0.00000000       0.24945200 </v>
   <v>       0.24945200       0.24945200       0.00000000 </v>
   <v>       0.00000000       0.24945200       0.24945200 </v>
   <v>       0.50000000       0.00000000       0.00000000 </v>
   <v>       0.75054800       0.00000000       0.24945200 </v>
   <v>       0.75054800       0.24945200       0.00000000 </v>
   <v>       0.50000000       0.25322100       0.25322100 </v>
   <v>       0.00000000       0.50000000       0.00000000 </v>
   <v>       0.25322100       0.50000000       0.25322100 </v>
   <v>       0.24945200       0.75054800       0.00000000 </v>
   <v>       0.00000000       0.75054800       0.24945200 </v>
   <v>       0.50000000       0.50000000       0.00000000 </v>
   <v>       0.74677900       0.50000000       0.25322100 </v>
   <v>       0.75054800       0.75054800       0.00000000 </v>
   <v>       0.50000000       0.74677900       0.25322100 </v>
   <v>       0.00000000       0.00000000       0.50000000 </v>
   <v>       0.24945200       0.00000000       0.75054800 </v>
   <v>       0.25322100       0.25322100       0.50000000 </v>
   <v>       0.00000000       0.24945200       0.75054800 </v>
   <v>       0.50000000       0.00000000       0.50000000 </v>
   <v>       0.75054800       0.00000000       0.75054800 </v>
   <v>       0.74677900       0.25322100       0.50000000 </v>
   <v>       0.50000000       0.25322100       0.74677900 </v>
   <v>       0.00000000       0.50000000       0.50000000 </v>
   <v>       0.25322100       0.50000000       0.74677900 </v>
   <v>       0.25322100       0.74677900       0.50000000 </v>
   <v>       0.00000000       0.75054800       0.75054800 </v>
   <v>       0.74677900       0.50000000       0.74677900 </v>
   <v>       0.74677900       0.74677900       0.50000000 </v>
   <v>       0.50000000       0.74677900       0.74677900 </v>
  </varray>
 </structure>
</modeling>
