    8    8    1    2
  0.2226630E+02  0.5626600E-09  0.5626600E-09  0.5626600E-09  0.5000000E-15
  1.000000000000000E-004
  CAR 
 unknown system                          
   63    1   41
 
  0.2500000E+00  0.2500000E+00  0.2500000E+00  0.1000000E+01
   1      -11.285947    -11.281291
   2      -11.254837    -11.251076
   3      -11.254836    -11.251075
   4      -11.206059    -11.203246
   5      -11.159856    -11.157824
   6      -11.159855    -11.157823
   7      -11.146289    -11.144073
   8      -11.146288    -11.144072
   9      -11.145902    -11.143074
  10      -11.114283    -11.108280
  11      -11.101041    -11.100565
  12      -11.101040    -11.100564
  13      -11.095476    -11.089989
  14      -11.095475    -11.089988
  15      -11.087342    -11.086974
  16       -9.521138     -9.450437
  17       -7.933230     -7.880145
  18       -7.364853     -7.320543
  19       -7.364853     -7.320543
  20       -5.391939     -5.331888
  21       -2.857371     -2.824835
  22       -2.857371     -2.824835
  23       -1.278370     -1.213659
  24       -0.469674     -0.410388
  25       -0.103729     -0.050259
  26       -0.103729     -0.050259
  27        0.827586      0.870772
  28        0.827586      0.870772
  29        1.505356      1.530395
  30        2.522853      2.561390
  31        2.522853      2.561390
  32        3.542511      3.646193
  33        5.347437      5.400728
  34        5.447502      5.517789
  35        5.447502      5.517789
  36        6.543840      6.633166
  37        7.201137      7.260947
  38        7.201137      7.260947
  39        8.349887      8.392308
  40        8.349887      8.392308
  41        8.811432      8.894357
