    4    4  191    1
  0.1071875E+02  0.3500000E-09  0.3500000E-09  0.3500000E-09  0.5000000E-15
  1.000000000000000E-004
  CAR 
 unknown system                          
   12    1   10
 
  0.0000000E+00  0.0000000E+00  0.0000000E+00  0.1000000E+01
   1       -3.677219
   2        3.838264
   3        3.838264
   4        3.838264
   5        4.748522
   6        4.748522
   7        4.748522
   8       11.621593
   9       11.621593
  10       11.621593
