   4   4   0   0
  0.1695473E+02  0.4078029E-09  0.4078029E-09  0.4078029E-09  0.5000000E-15
  1.000000000000000E-004
  CAR 
 unknown system                          
     13.31157035     -3.56701986  301      7.02113146      1.00000000
     -3.567  0.0000E+00  0.0000E+00
     -3.511  0.0000E+00  0.0000E+00
     -3.454  0.0000E+00  0.0000E+00
     -3.398  0.0000E+00  0.0000E+00
     -3.342  0.0000E+00  0.0000E+00
     -3.286  0.0000E+00  0.0000E+00
     -3.229  0.0000E+00  0.0000E+00
     -3.173 -0.7879E-26 -0.4433E-27
     -3.117 -0.6361E-24 -0.3623E-25
     -3.061 -0.4423E-22 -0.2525E-23
     -3.004 -0.2621E-20 -0.1500E-21
     -2.948 -0.1323E-18 -0.7592E-20
     -2.892 -0.5686E-17 -0.3275E-18
     -2.836 -0.2082E-15 -0.1204E-16
     -2.779 -0.6488E-14 -0.3771E-15
     -2.723 -0.1662E-12 -0.9725E-14
     -2.667 -0.3756E-11 -0.2211E-12
     -2.611 -0.7178E-10 -0.4260E-11
     -2.554 -0.1165E-08 -0.6982E-10
     -2.498 -0.1605E-07 -0.9730E-09
     -2.442 -0.1875E-06 -0.1152E-07
     -2.386 -0.1853E-05 -0.1158E-06
     -2.329 -0.1549E-04 -0.9870E-06
     -2.273 -0.1091E-03 -0.7127E-05
     -2.217 -0.6467E-03 -0.4351E-04
     -2.160 -0.3209E-02 -0.2241E-03
     -2.104 -0.1325E-01 -0.9697E-03
     -2.048 -0.4513E-01 -0.3509E-02
     -1.992 -0.1246E+00 -0.1052E-01
     -1.935 -0.2705E+00 -0.2574E-01
     -1.879 -0.4271E+00 -0.4977E-01
     -1.823 -0.3607E+00 -0.7006E-01
     -1.767  0.3592E+00 -0.4985E-01
     -1.710  0.2109E+01  0.6881E-01
     -1.654  0.4727E+01  0.3348E+00
     -1.598  0.7247E+01  0.7425E+00
     -1.542  0.8368E+01  0.1213E+01
     -1.485  0.7434E+01  0.1632E+01
     -1.429  0.4994E+01  0.1913E+01
     -1.373  0.2332E+01  0.2044E+01
     -1.317  0.4793E+00  0.2071E+01
     -1.260 -0.3277E+00  0.2052E+01
     -1.204 -0.4360E+00  0.2028E+01
     -1.148 -0.2871E+00  0.2012E+01
     -1.091 -0.1358E+00  0.2004E+01
     -1.035 -0.5022E-01  0.2001E+01
     -0.979 -0.1504E-01  0.2000E+01
     -0.923 -0.3707E-02  0.2000E+01
     -0.866 -0.7601E-03  0.2000E+01
     -0.810 -0.1304E-03  0.2000E+01
     -0.754 -0.1882E-04  0.2000E+01
     -0.698 -0.2289E-05  0.2000E+01
     -0.641 -0.2353E-06  0.2000E+01
     -0.585 -0.2047E-07  0.2000E+01
     -0.529 -0.1510E-08  0.2000E+01
     -0.473 -0.9447E-10  0.2000E+01
     -0.416 -0.5020E-11  0.2000E+01
     -0.360 -0.2289E-12  0.2000E+01
     -0.304 -0.7893E-14  0.2000E+01
     -0.248  0.0000E+00  0.2000E+01
     -0.191  0.0000E+00  0.2000E+01
     -0.135  0.0000E+00  0.2000E+01
     -0.079  0.0000E+00  0.2000E+01
     -0.023  0.0000E+00  0.2000E+01
      0.034  0.0000E+00  0.2000E+01
      0.090  0.0000E+00  0.2000E+01
      0.146  0.0000E+00  0.2000E+01
      0.203  0.0000E+00  0.2000E+01
      0.259  0.0000E+00  0.2000E+01
      0.315  0.0000E+00  0.2000E+01
      0.371  0.0000E+00  0.2000E+01
      0.428  0.0000E+00  0.2000E+01
      0.484  0.0000E+00  0.2000E+01
      0.540  0.0000E+00  0.2000E+01
      0.596  0.0000E+00  0.2000E+01
      0.653  0.0000E+00  0.2000E+01
      0.709  0.0000E+00  0.2000E+01
      0.765  0.0000E+00  0.2000E+01
      0.821  0.0000E+00  0.2000E+01
      0.878  0.0000E+00  0.2000E+01
      0.934  0.0000E+00  0.2000E+01
      0.990  0.0000E+00  0.2000E+01
      1.046  0.0000E+00  0.2000E+01
      1.103  0.0000E+00  0.2000E+01
      1.159 -0.2870E-25  0.2000E+01
      1.215 -0.2301E-23  0.2000E+01
      1.272 -0.1589E-21  0.2000E+01
      1.328 -0.9349E-20  0.2000E+01
      1.384 -0.4686E-18  0.2000E+01
      1.440 -0.2001E-16  0.2000E+01
      1.497 -0.7273E-15  0.2000E+01
      1.553 -0.2251E-13  0.2000E+01
      1.609 -0.5751E-12  0.2000E+01
      1.665 -0.1284E-10  0.2000E+01
      1.722 -0.2438E-09  0.2000E+01
      1.778 -0.3930E-08  0.2000E+01
      1.834 -0.5375E-07  0.2000E+01
      1.890 -0.6232E-06  0.2000E+01
      1.947 -0.6117E-05  0.2000E+01
      2.003 -0.5074E-04  0.2000E+01
      2.059 -0.3549E-03  0.2000E+01
      2.115 -0.2087E-02  0.2000E+01
      2.172 -0.1028E-01  0.1999E+01
      2.228 -0.4210E-01  0.1997E+01
      2.284 -0.1421E+00  0.1989E+01
      2.340 -0.3887E+00  0.1967E+01
      2.397 -0.8339E+00  0.1920E+01
      2.453 -0.1294E+01  0.1847E+01
      2.509 -0.1040E+01  0.1789E+01
      2.566  0.1237E+01  0.1858E+01
      2.622  0.6627E+01  0.2231E+01
      2.678  0.1454E+02  0.3049E+01
      2.734  0.2200E+02  0.4287E+01
      2.791  0.2511E+02  0.5700E+01
      2.847  0.2205E+02  0.6941E+01
      2.903  0.1462E+02  0.7763E+01
      2.959  0.6691E+01  0.8140E+01
      3.016  0.1272E+01  0.8211E+01
      3.072 -0.1030E+01  0.8153E+01
      3.128 -0.1297E+01  0.8080E+01
      3.184 -0.8387E+00  0.8033E+01
      3.241 -0.3920E+00  0.8011E+01
      3.297 -0.1436E+00  0.8003E+01
      3.353 -0.4262E-01  0.8001E+01
      3.409 -0.1042E-01  0.8000E+01
      3.466 -0.2120E-02  0.8000E+01
      3.522 -0.3611E-03  0.8000E+01
      3.578 -0.5171E-04  0.8000E+01
      3.635 -0.6243E-05  0.8000E+01
      3.691 -0.6371E-06  0.8000E+01
      3.747 -0.5504E-07  0.8000E+01
      3.803 -0.4030E-08  0.8000E+01
      3.860 -0.2504E-09  0.8000E+01
      3.916 -0.1321E-10  0.8000E+01
      3.972 -0.5920E-12  0.8000E+01
      4.028 -0.2368E-13  0.8000E+01
      4.085  0.0000E+00  0.8000E+01
      4.141  0.0000E+00  0.8000E+01
      4.197  0.0000E+00  0.8000E+01
      4.253  0.0000E+00  0.8000E+01
      4.310  0.0000E+00  0.8000E+01
      4.366  0.0000E+00  0.8000E+01
      4.422  0.0000E+00  0.8000E+01
      4.478  0.0000E+00  0.8000E+01
      4.535  0.0000E+00  0.8000E+01
      4.591  0.0000E+00  0.8000E+01
      4.647  0.0000E+00  0.8000E+01
      4.703  0.0000E+00  0.8000E+01
      4.760  0.0000E+00  0.8000E+01
      4.816  0.0000E+00  0.8000E+01
      4.872  0.0000E+00  0.8000E+01
      4.929  0.0000E+00  0.8000E+01
      4.985  0.0000E+00  0.8000E+01
      5.041  0.0000E+00  0.8000E+01
      5.097  0.0000E+00  0.8000E+01
      5.154  0.0000E+00  0.8000E+01
      5.210  0.0000E+00  0.8000E+01
      5.266  0.0000E+00  0.8000E+01
      5.322  0.0000E+00  0.8000E+01
      5.379 -0.3236E-25  0.8000E+01
      5.435 -0.2583E-23  0.8000E+01
      5.491 -0.1776E-21  0.8000E+01
      5.547 -0.1041E-19  0.8000E+01
      5.604 -0.5194E-18  0.8000E+01
      5.660 -0.2208E-16  0.8000E+01
      5.716 -0.7992E-15  0.8000E+01
      5.772 -0.2463E-13  0.8000E+01
      5.829 -0.6280E-12  0.8000E+01
      5.885 -0.1393E-10  0.8000E+01
      5.941 -0.2633E-09  0.8000E+01
      5.998 -0.4225E-08  0.8000E+01
      6.054 -0.5753E-07  0.8000E+01
      6.110 -0.6641E-06  0.8000E+01
      6.166 -0.6488E-05  0.8000E+01
      6.223 -0.5358E-04  0.8000E+01
      6.279 -0.3730E-03  0.8000E+01
      6.335 -0.2184E-02  0.8000E+01
      6.391 -0.1070E-01  0.7999E+01
      6.448 -0.4361E-01  0.7997E+01
      6.504 -0.1464E+00  0.7989E+01
      6.560 -0.3981E+00  0.7966E+01
      6.616 -0.8478E+00  0.7918E+01
      6.673 -0.1302E+01  0.7845E+01
      6.729 -0.1011E+01  0.7788E+01
      6.785  0.1338E+01  0.7864E+01
      6.841  0.6814E+01  0.8247E+01
      6.898  0.1477E+02  0.9078E+01
      6.954  0.2216E+02  0.1032E+02
      7.010  0.2511E+02  0.1174E+02
      7.066  0.2190E+02  0.1297E+02
      7.123  0.1440E+02  0.1378E+02
      7.179  0.6505E+01  0.1414E+02
      7.235  0.1171E+01  0.1421E+02
      7.292 -0.1057E+01  0.1415E+02
      7.348 -0.1289E+01  0.1408E+02
      7.404 -0.8248E+00  0.1403E+02
      7.460 -0.3827E+00  0.1401E+02
      7.517 -0.1394E+00  0.1400E+02
      7.573 -0.4114E-01  0.1400E+02
      7.629 -0.1001E-01  0.1400E+02
      7.685 -0.2027E-02  0.1400E+02
      7.742 -0.3435E-03  0.1400E+02
      7.798 -0.4896E-04  0.1400E+02
      7.854 -0.5885E-05  0.1400E+02
      7.910 -0.5979E-06  0.1400E+02
      7.967 -0.5142E-07  0.1400E+02
      8.023 -0.3749E-08  0.1400E+02
      8.079 -0.2319E-09  0.1400E+02
      8.135 -0.1220E-10  0.1400E+02
      8.192 -0.5446E-12  0.1400E+02
      8.248 -0.2368E-13  0.1400E+02
      8.304  0.0000E+00  0.1400E+02
      8.361  0.0000E+00  0.1400E+02
      8.417  0.0000E+00  0.1400E+02
      8.473  0.0000E+00  0.1400E+02
      8.529  0.0000E+00  0.1400E+02
      8.586  0.0000E+00  0.1400E+02
      8.642  0.0000E+00  0.1400E+02
      8.698  0.0000E+00  0.1400E+02
      8.754  0.0000E+00  0.1400E+02
      8.811  0.0000E+00  0.1400E+02
      8.867  0.0000E+00  0.1400E+02
      8.923  0.0000E+00  0.1400E+02
      8.979  0.0000E+00  0.1400E+02
      9.036  0.0000E+00  0.1400E+02
      9.092  0.0000E+00  0.1400E+02
      9.148  0.0000E+00  0.1400E+02
      9.204  0.0000E+00  0.1400E+02
      9.261  0.0000E+00  0.1400E+02
      9.317  0.0000E+00  0.1400E+02
      9.373  0.0000E+00  0.1400E+02
      9.429  0.0000E+00  0.1400E+02
      9.486 -0.1893E-26  0.1400E+02
      9.542 -0.1608E-24  0.1400E+02
      9.598 -0.1176E-22  0.1400E+02
      9.655 -0.7332E-21  0.1400E+02
      9.711 -0.3893E-19  0.1400E+02
      9.767 -0.1761E-17  0.1400E+02
      9.823 -0.6783E-16  0.1400E+02
      9.880 -0.2224E-14  0.1400E+02
      9.936 -0.6011E-13  0.1400E+02
      9.992 -0.1427E-11  0.1400E+02
     10.048 -0.2873E-10  0.1400E+02
     10.105 -0.4912E-09  0.1400E+02
     10.161 -0.7128E-08  0.1400E+02
     10.217 -0.8772E-07  0.1400E+02
     10.273 -0.9144E-06  0.1400E+02
     10.330 -0.8061E-05  0.1400E+02
     10.386 -0.5999E-04  0.1400E+02
     10.442 -0.3759E-03  0.1400E+02
     10.498 -0.1976E-02  0.1400E+02
     10.555 -0.8674E-02  0.1400E+02
     10.611 -0.3156E-01  0.1400E+02
     10.667 -0.9410E-01  0.1399E+02
     10.724 -0.2254E+00  0.1398E+02
     10.780 -0.4161E+00  0.1396E+02
     10.836 -0.5297E+00  0.1393E+02
     10.892 -0.2395E+00  0.1391E+02
     10.949  0.8640E+00  0.1396E+02
     11.005  0.2977E+01  0.1413E+02
     11.061  0.5888E+01  0.1446E+02
     11.117  0.9186E+01  0.1498E+02
     11.174  0.1261E+02  0.1569E+02
     11.230  0.1584E+02  0.1658E+02
     11.286  0.1799E+02  0.1759E+02
     11.342  0.1768E+02  0.1858E+02
     11.399  0.1432E+02  0.1939E+02
     11.455  0.9006E+01  0.1990E+02
     11.511  0.3876E+01  0.2012E+02
     11.567  0.5412E+00  0.2015E+02
     11.624 -0.7918E+00  0.2010E+02
     11.680 -0.8767E+00  0.2005E+02
     11.736 -0.5469E+00  0.2002E+02
     11.792 -0.2505E+00  0.2001E+02
     11.849 -0.9049E-01  0.2000E+02
     11.905 -0.2654E-01  0.2000E+02
     11.961 -0.6423E-02  0.2000E+02
     12.018 -0.1294E-02  0.2000E+02
     12.074 -0.2183E-03  0.2000E+02
     12.130 -0.3097E-04  0.2000E+02
     12.186 -0.3707E-05  0.2000E+02
     12.243 -0.3749E-06  0.2000E+02
     12.299 -0.3211E-07  0.2000E+02
     12.355 -0.2331E-08  0.2000E+02
     12.411 -0.1436E-09  0.2000E+02
     12.468 -0.7514E-11  0.2000E+02
     12.524 -0.3315E-12  0.2000E+02
     12.580 -0.1579E-13  0.2000E+02
     12.636  0.0000E+00  0.2000E+02
     12.693  0.0000E+00  0.2000E+02
     12.749  0.0000E+00  0.2000E+02
     12.805  0.0000E+00  0.2000E+02
     12.861  0.0000E+00  0.2000E+02
     12.918  0.0000E+00  0.2000E+02
     12.974  0.0000E+00  0.2000E+02
     13.030  0.0000E+00  0.2000E+02
     13.087  0.0000E+00  0.2000E+02
     13.143  0.0000E+00  0.2000E+02
     13.199  0.0000E+00  0.2000E+02
     13.255  0.0000E+00  0.2000E+02
     13.312  0.0000E+00  0.2000E+02
