/home/usitguest/MAST-structopt_VASP/MAST/structopt_stem/examples/STEM/Au309-rank0/LAMMPSFiles/rank-7/data_lammps000001EsCynH (written by ASE) 

309 	 atoms 
1  atom types
0.0 500.00000000  xlo xhi
0.0 500.00000000  ylo yhi
0.0 500.00000000  zlo zhi


Atoms 

     1   1 266.89600000 259.16400000 268.65600000
     2   1 269.15600000 268.27100000 264.14600000
     3   1 257.39700000 256.37400000 254.56900000
     4   1 258.86000000 265.52200000 264.11200000
     5   1 262.88700000 256.00900000 257.54500000
     6   1 258.68300000 269.96100000 259.60900000
     7   1 263.02200000 269.58000000 257.45500000
     8   1 261.27700000 266.98700000 267.93800000
     9   1 263.11500000 256.88300000 264.05100000
    10   1 266.19700000 266.49000000 259.68900000
    11   1 252.47100000 267.17900000 262.94100000
    12   1 264.56900000 255.02800000 254.07500000
    13   1 258.46600000 265.31200000 252.31200000
    14   1 259.43400000 267.62900000 265.71100000
    15   1 270.19700000 262.01600000 265.23800000
    16   1 256.66100000 268.63500000 255.48900000
    17   1 260.24600000 269.76700000 263.86500000
    18   1 261.09400000 269.67400000 268.47600000
    19   1 258.08400000 268.00200000 263.46200000
    20   1 255.51500000 252.71800000 261.42200000
    21   1 258.54600000 255.15000000 256.73700000
    22   1 256.29200000 259.36700000 269.15300000
    23   1 255.47400000 261.59500000 264.80400000
    24   1 265.10900000 265.91000000 264.89300000
    25   1 262.89300000 260.90700000 265.77900000
    26   1 265.93100000 252.43400000 258.19600000
    27   1 264.20800000 261.13900000 256.73800000
    28   1 254.92400000 266.74300000 258.70100000
    29   1 256.57000000 266.44800000 265.10900000
    30   1 263.93300000 265.14700000 267.51400000
    31   1 257.26900000 268.05700000 260.85800000
    32   1 260.75700000 255.92100000 264.78900000
    33   1 263.44300000 265.64800000 257.07700000
    34   1 263.91000000 267.81600000 255.62500000
    35   1 261.49300000 262.42800000 251.10800000
    36   1 268.28200000 255.59800000 258.42500000
    37   1 258.70700000 268.19900000 268.20700000
    38   1 268.34800000 261.94200000 263.27100000
    39   1 260.50000000 271.13000000 261.23800000
    40   1 261.25000000 261.61500000 268.88400000
    41   1 264.13400000 257.60700000 252.69300000
    42   1 258.43400000 259.12300000 262.76300000
    43   1 255.38600000 263.94600000 258.30200000
    44   1 257.26100000 265.64800000 259.54600000
    45   1 260.94000000 266.76800000 254.56400000
    46   1 252.44600000 264.44900000 262.16600000
    47   1 255.29400000 261.04900000 257.84300000
    48   1 266.46400000 263.89000000 260.46600000
    49   1 265.29500000 256.45100000 256.27300000
    50   1 268.23000000 264.51700000 268.85600000
    51   1 257.07500000 269.01700000 265.86300000
    52   1 265.55800000 256.36000000 265.26200000
    53   1 261.41500000 258.24200000 253.14900000
    54   1 258.97000000 267.56700000 256.33500000
    55   1 256.32200000 266.24000000 254.06100000
    56   1 259.84600000 262.53500000 257.42700000
    57   1 261.62700000 258.40000000 259.38300000
    58   1 259.71200000 258.35400000 265.01800000
    59   1 266.00100000 253.51400000 260.74500000
    60   1 264.92000000 271.43600000 258.01800000
    61   1 268.37600000 263.80000000 266.21500000
    62   1 260.80400000 260.95200000 253.30300000
    63   1 267.53500000 261.84800000 253.68600000
    64   1 262.07200000 255.83100000 260.06100000
    65   1 254.55700000 265.60900000 263.48800000
    66   1 263.10300000 262.98000000 270.48400000
    67   1 263.14000000 259.81100000 268.24300000
    68   1 254.73000000 264.08600000 265.81700000
    69   1 256.98000000 263.43700000 261.15300000
    70   1 261.93600000 254.50600000 255.35400000
    71   1 267.07800000 258.60200000 265.92100000
    72   1 264.76500000 257.84600000 267.36500000
    73   1 264.04500000 254.35400000 264.10800000
    74   1 257.09500000 254.93200000 261.42600000
    75   1 261.60600000 260.15200000 261.39800000
    76   1 266.62900000 256.88800000 253.67900000
    77   1 267.17400000 268.14800000 266.13400000
    78   1 261.28900000 258.08600000 256.75300000
    79   1 262.14800000 258.28300000 266.28500000
    80   1 252.66400000 260.90900000 258.86900000
    81   1 256.13100000 254.00000000 256.25600000
    82   1 260.16700000 256.48300000 254.95300000
    83   1 254.21900000 258.64600000 257.32000000
    84   1 265.73300000 263.91600000 253.60200000
    85   1 258.72400000 265.23600000 254.98900000
    86   1 269.29100000 266.33800000 266.75400000
    87   1 267.95100000 256.93500000 256.05600000
    88   1 259.39600000 265.88400000 261.51500000
    89   1 264.39900000 267.59400000 261.53600000
    90   1 261.82000000 268.75400000 265.93600000
    91   1 254.79300000 264.90800000 260.73400000
    92   1 263.06300000 257.88400000 261.60400000
    93   1 271.09400000 263.73400000 259.88200000
    94   1 262.26700000 271.64500000 259.10100000
    95   1 259.47000000 270.28800000 266.39900000
    96   1 260.02300000 265.17600000 266.44000000
    97   1 256.84900000 265.88000000 262.28600000
    98   1 259.50600000 267.29100000 259.15800000
    99   1 263.41600000 252.85300000 261.86900000
   100   1 257.52900000 262.04900000 258.92300000
   101   1 258.30300000 258.69100000 267.36600000
   102   1 259.02700000 270.06500000 254.95500000
   103   1 268.23800000 267.09200000 261.79400000
   104   1 261.45000000 267.33700000 257.23700000
   105   1 263.65800000 268.07600000 264.11900000
   106   1 264.01700000 263.55700000 255.64500000
   107   1 263.11500000 262.87200000 253.20300000
   108   1 264.23400000 260.11700000 262.34700000
   109   1 259.47600000 254.02800000 263.19600000
   110   1 255.70500000 259.48000000 266.50300000
   111   1 257.25000000 261.30400000 271.10300000
   112   1 255.07600000 261.76100000 269.29800000
   113   1 263.53500000 270.35000000 267.25000000
   114   1 259.10100000 265.16100000 257.61600000
   115   1 260.15900000 269.70800000 257.40400000
   116   1 263.06100000 271.88400000 261.73700000
   117   1 254.89200000 256.80700000 259.31100000
   118   1 259.03800000 265.53000000 268.95700000
   119   1 259.23200000 263.36300000 262.55900000
   120   1 259.25600000 262.59700000 254.86100000
   121   1 265.76100000 263.20400000 266.63900000
   122   1 255.87000000 254.25700000 259.04600000
   123   1 269.26200000 259.53000000 264.40800000
   124   1 267.56700000 270.34300000 263.14100000
   125   1 254.75300000 263.09400000 262.66800000
   126   1 264.06800000 269.82400000 260.03300000
   127   1 263.89500000 258.54700000 257.26900000
   128   1 266.30400000 268.01900000 263.53200000
   129   1 262.69900000 259.70400000 255.01300000
   130   1 258.92500000 262.61000000 252.15100000
   131   1 262.41700000 266.12700000 265.59600000
   132   1 270.09200000 264.08100000 257.27600000
   133   1 256.84300000 253.59100000 263.79100000
   134   1 265.33300000 262.01900000 251.65600000
   135   1 255.72200000 254.95400000 266.11600000
   136   1 268.87100000 261.59100000 256.11500000
   137   1 264.87700000 270.10500000 262.60400000
   138   1 257.12300000 268.24400000 258.19000000
   139   1 254.42200000 259.29500000 260.02800000
   140   1 262.67100000 260.26700000 270.84200000
   141   1 263.24600000 265.62700000 262.98100000
   142   1 267.79300000 266.01600000 264.51500000
   143   1 263.33800000 268.27100000 269.16100000
   144   1 260.05400000 261.01500000 263.69000000
   145   1 261.48900000 269.07600000 259.58400000
   146   1 259.68400000 272.20200000 258.46400000
   147   1 255.31800000 257.15100000 267.87300000
   148   1 261.01100000 267.13000000 263.54900000
   149   1 256.12000000 256.64000000 256.92600000
   150   1 257.65800000 260.76700000 256.54400000
   151   1 261.61300000 271.76100000 256.40700000
   152   1 262.09000000 259.33000000 263.84600000
   153   1 253.32700000 262.65100000 256.90500000
   154   1 256.78700000 263.90000000 264.10000000
   155   1 252.49200000 261.75500000 261.58300000
   156   1 257.49300000 260.89400000 253.76300000
   157   1 267.40400000 261.89200000 268.31600000
   158   1 254.88800000 262.06500000 260.21600000
   159   1 265.56500000 263.81500000 269.27400000
   160   1 263.30100000 260.22600000 252.37500000
   161   1 266.59700000 269.00900000 260.75100000
   162   1 264.65100000 263.43500000 262.54900000
   163   1 268.82500000 259.93600000 252.14700000
   164   1 268.11600000 257.46100000 262.72600000
   165   1 268.80800000 259.89600000 261.66100000
   166   1 258.57200000 267.72200000 253.62700000
   167   1 262.48000000 262.03400000 263.24000000
   168   1 253.23700000 258.96100000 267.44900000
   169   1 260.25300000 260.59100000 266.50100000
   170   1 252.76700000 263.58100000 259.51200000
   171   1 261.24800000 257.88600000 271.04700000
   172   1 254.90900000 264.42300000 255.58500000
   173   1 261.85000000 266.77400000 260.99200000
   174   1 267.48400000 261.31700000 265.64100000
   175   1 258.62500000 253.91800000 259.16200000
   176   1 257.11400000 257.20900000 265.62400000
   177   1 264.55300000 258.95800000 264.90700000
   178   1 259.95300000 260.34300000 271.09000000
   179   1 257.97000000 270.42100000 262.26600000
   180   1 259.27200000 263.05700000 267.83100000
   181   1 265.33100000 260.55000000 266.96300000
   182   1 261.22000000 264.60600000 256.13000000
   183   1 256.24700000 258.87500000 255.35000000
   184   1 259.16500000 261.16800000 261.02500000
   185   1 268.78100000 257.90900000 259.86700000
   186   1 258.36300000 256.48700000 263.34500000
   187   1 256.77800000 258.87500000 258.44700000
   188   1 252.26300000 265.05700000 264.86100000
   189   1 265.63700000 255.10900000 258.52600000
   190   1 259.04400000 258.27900000 260.35600000
   191   1 256.89700000 263.56500000 253.86300000
   192   1 265.63500000 268.59600000 257.92800000
   193   1 260.92200000 253.33400000 260.64300000
   194   1 258.57700000 260.80400000 268.85800000
   195   1 253.83600000 261.61200000 266.88300000
   196   1 261.55600000 264.36000000 268.67700000
   197   1 265.48700000 264.35600000 258.03100000
   198   1 253.02200000 265.31100000 257.44900000
   199   1 254.67300000 267.49800000 261.30300000
   200   1 257.60400000 270.73300000 257.18700000
   201   1 254.36200000 255.22700000 261.39800000
   202   1 265.99900000 265.67500000 262.35200000
   203   1 266.60700000 263.70400000 264.21900000
   204   1 261.85500000 255.04900000 262.55200000
   205   1 265.09600000 261.10900000 269.66600000
   206   1 268.24600000 264.26100000 255.11500000
   207   1 270.21000000 264.79300000 264.48000000
   208   1 253.98400000 267.04100000 265.72200000
   209   1 268.77800000 265.17500000 259.83400000
   210   1 256.52400000 257.60000000 261.40700000
   211   1 267.75500000 265.73300000 257.43100000
   212   1 269.10600000 259.06200000 257.30800000
   213   1 260.65400000 259.01200000 268.64600000
   214   1 259.40700000 260.03600000 258.46200000
   215   1 265.21800000 258.76600000 254.97500000
   216   1 270.19300000 261.46800000 258.51100000
   217   1 266.73900000 256.27700000 260.65600000
   218   1 266.74300000 259.71100000 263.45000000
   219   1 261.09300000 254.00800000 257.94500000
   220   1 255.39400000 261.71800000 255.26200000
   221   1 257.73800000 256.05900000 268.11600000
   222   1 263.56400000 262.48800000 267.86700000
   223   1 259.57800000 255.68400000 260.99500000
   224   1 269.19500000 259.99800000 267.20500000
   225   1 261.62700000 269.28300000 255.13600000
   226   1 257.89900000 260.32200000 265.23900000
   227   1 254.27900000 257.30000000 265.38600000
   228   1 264.43900000 267.74500000 266.73800000
   229   1 263.93300000 264.96300000 260.28500000
   230   1 261.19200000 264.29200000 264.06400000
   231   1 261.16800000 262.06300000 259.64100000
   232   1 260.06600000 260.17000000 255.75900000
   233   1 267.91400000 259.29700000 254.67300000
   234   1 263.03600000 255.68800000 266.45200000
   235   1 263.53600000 267.35800000 259.02400000
   236   1 266.12500000 259.52000000 252.53400000
   237   1 258.55200000 258.09700000 270.04300000
   238   1 263.88700000 259.82000000 259.61400000
   239   1 257.55900000 256.39400000 259.16600000
   240   1 259.28000000 263.82300000 259.87900000
   241   1 265.74700000 265.70000000 255.63000000
   242   1 252.51900000 266.29400000 260.09000000
   243   1 263.56300000 262.20500000 260.61500000
   244   1 263.01600000 263.12300000 258.08500000
   245   1 258.94000000 262.87300000 265.22400000
   246   1 258.83000000 258.62200000 253.97100000
   247   1 254.69800000 260.48900000 262.40900000
   248   1 259.63700000 263.06900000 270.50900000
   249   1 256.53200000 263.65300000 251.16900000
   250   1 261.45900000 265.14900000 258.91300000
   251   1 266.34300000 261.50400000 261.50300000
   252   1 262.98000000 257.01200000 255.02900000
   253   1 264.23100000 253.84500000 256.57500000
   254   1 268.40100000 264.44800000 262.40000000
   255   1 260.08300000 256.46200000 258.43100000
   256   1 264.37000000 257.18400000 259.49300000
   257   1 257.13900000 263.52200000 269.38600000
   258   1 262.32200000 269.24300000 262.13400000
   259   1 262.54600000 257.08300000 268.76500000
   260   1 260.20700000 256.68600000 267.28700000
   261   1 265.41100000 257.48200000 262.80900000
   262   1 257.35700000 264.58700000 266.78400000
   263   1 257.30000000 261.52600000 262.95400000
   264   1 254.40600000 267.15700000 255.96700000
   265   1 267.78300000 260.42700000 259.22600000
   266   1 253.95400000 257.84700000 262.42900000
   267   1 256.80200000 261.94300000 267.12100000
   268   1 270.05400000 262.55900000 267.95600000
   269   1 256.72600000 266.01400000 256.77900000
   270   1 253.48000000 259.76400000 264.72800000
   271   1 261.44300000 262.98000000 266.34500000
   272   1 265.48700000 266.59900000 269.29800000
   273   1 264.29300000 255.41800000 261.52700000
   274   1 270.77100000 262.92800000 262.54300000
   275   1 266.60800000 260.10900000 256.86100000
   276   1 265.08600000 261.55700000 264.41700000
   277   1 255.38300000 268.40000000 263.69200000
   278   1 261.63100000 264.03200000 261.42700000
   279   1 264.96800000 261.29900000 254.25400000
   280   1 259.82200000 268.50400000 261.54800000
   281   1 260.64400000 257.58200000 262.50200000
   282   1 252.83600000 262.41400000 264.36300000
   283   1 266.95500000 254.31400000 256.22500000
   284   1 266.60500000 257.84800000 258.24600000
   285   1 256.80000000 260.17100000 260.73700000
   286   1 260.82100000 264.23200000 253.41400000
   287   1 267.87200000 263.03800000 258.26800000
   288   1 266.60600000 265.69300000 267.05100000
   289   1 266.56900000 255.00800000 263.07200000
   290   1 262.82800000 270.74600000 264.38000000
   291   1 263.29700000 265.55400000 254.10500000
   292   1 261.92200000 260.49300000 257.71100000
   293   1 266.39600000 262.65900000 256.11000000
   294   1 263.64700000 263.70400000 265.08900000
   295   1 258.45600000 254.87600000 265.67800000
   296   1 256.05400000 258.84400000 263.87500000
   297   1 264.58700000 258.40300000 270.08600000
   298   1 258.26700000 252.43300000 261.40600000
   299   1 270.69700000 265.71700000 261.85500000
   300   1 265.55100000 261.81900000 258.88600000
   301   1 261.84400000 262.13800000 255.54100000
   302   1 251.38000000 279.89600000 269.75700000
   303   1 265.36400000 269.95700000 265.25000000
   304   1 266.21000000 258.92600000 260.75100000
   305   1 263.25802671 263.85719800 263.54900000
   306   1 255.62030854 261.13780135 259.28000000
   307   1 256.56221037 250.93521551 260.67400000
   308   1 262.13861637 260.63240243 256.67800000
   309   1 266.36583801 257.02738271 256.55100000
