/home/usitguest/MAST-structopt_VASP/MAST/structopt_stem/examples/STEM/Au309-rank0/LAMMPSFiles/rank-16/data_lammps000001aUaQwJ (written by ASE) 

309 	 atoms 
1  atom types
0.0 500.00000000  xlo xhi
0.0 500.00000000  ylo yhi
0.0 500.00000000  zlo zhi


Atoms 

     1   1 262.33000000 269.14500000 268.76700000
     2   1 254.99700000 255.57400000 255.74300000
     3   1 267.79800000 265.86900000 256.45200000
     4   1 261.23700000 255.02600000 263.27600000
     5   1 263.20400000 267.87800000 257.53600000
     6   1 259.69600000 252.41600000 259.71300000
     7   1 253.56300000 257.93600000 256.15400000
     8   1 258.65200000 259.37800000 268.23600000
     9   1 262.73500000 267.39400000 263.93300000
    10   1 251.96300000 261.39500000 259.84700000
    11   1 265.87100000 252.22700000 263.87900000
    12   1 264.72900000 267.67900000 253.06200000
    13   1 260.45300000 257.78000000 252.88700000
    14   1 258.16200000 257.67200000 266.12700000
    15   1 253.87800000 268.05200000 264.59100000
    16   1 263.72200000 252.84900000 256.82700000
    17   1 259.10400000 258.42600000 263.63000000
    18   1 260.64300000 267.28000000 262.27300000
    19   1 255.88900000 256.95600000 267.51300000
    20   1 258.89558953 255.41897382 261.59642021
    21   1 270.68000000 264.90500000 261.68700000
    22   1 261.50900000 257.57300000 264.49600000
    23   1 266.70600000 259.22300000 269.37800000
    24   1 266.67400000 258.93000000 265.02300000
    25   1 256.18400000 259.52700000 266.89600000
    26   1 261.77900000 262.91700000 265.16900000
    27   1 261.92700000 272.45100000 259.43700000
    28   1 259.31800000 264.28200000 256.77500000
    29   1 264.46300000 254.16900000 259.22600000
    30   1 263.06500000 255.67500000 265.10000000
    31   1 257.66900000 261.69400000 267.55700000
    32   1 261.35000000 252.40100000 262.09600000
    33   1 265.45500000 269.21500000 264.86800000
    34   1 269.19400000 263.55800000 263.65500000
    35   1 263.99600000 270.52000000 259.77700000
    36   1 259.26700000 265.20600000 263.53800000
    37   1 263.06500000 253.11100000 264.14000000
    38   1 260.33400000 260.11800000 261.72200000
    39   1 258.93900000 264.70400000 254.16200000
    40   1 259.15441047 256.06602618 261.53057979
    41   1 264.69900000 264.87200000 262.57600000
    42   1 268.32600000 256.93800000 264.44300000
    43   1 261.45000000 271.69100000 256.24400000
    44   1 259.40200000 268.69100000 257.96200000
    45   1 266.31600000 260.33700000 260.36400000
    46   1 259.28700000 260.08300000 253.98500000
    47   1 254.72300000 264.18600000 257.36200000
    48   1 255.36000000 263.18100000 266.96400000
    49   1 260.71400000 271.83400000 264.47100000
    50   1 255.94500000 256.34600000 264.88100000
    51   1 256.61900000 260.58000000 253.75800000
    52   1 261.59200000 263.23000000 257.48200000
    53   1 256.81800000 264.49100000 255.70800000
    54   1 259.05400000 262.69400000 264.80300000
    55   1 267.63700000 266.39100000 265.91700000
    56   1 267.97200000 261.22600000 264.40000000
    57   1 261.30300000 266.80200000 270.02600000
    58   1 268.84900000 266.95000000 261.38500000
    59   1 252.26100000 264.94400000 261.41300000
    60   1 257.13100000 264.92500000 258.23300000
    61   1 260.90200000 261.89200000 255.21500000
    62   1 269.58000000 257.25400000 261.21600000
    63   1 254.14400000 258.28900000 265.58500000
    64   1 255.10500000 265.92100000 259.71800000
    65   1 265.76800000 263.79300000 256.64600000
    66   1 264.45000000 258.08700000 256.34800000
    67   1 257.69100000 259.86800000 256.26800000
    68   1 256.01800000 258.15300000 254.85500000
    69   1 255.01500000 261.06600000 259.64600000
    70   1 259.48300000 271.47500000 258.33100000
    71   1 258.59300000 256.52400000 268.50900000
    72   1 255.89700000 266.62700000 263.45300000
    73   1 257.23700000 253.98900000 260.54900000
    74   1 262.08800000 262.25000000 269.37800000
    75   1 261.99400000 267.59900000 252.51100000
    76   1 266.28600000 262.83200000 263.17900000
    77   1 265.33700000 256.88900000 258.55200000
    78   1 263.01600000 256.47900000 259.87000000
    79   1 257.71600000 258.30000000 252.60700000
    80   1 267.70400000 255.43800000 262.18500000
    81   1 266.81800000 259.13900000 257.87000000
    82   1 256.41600000 263.36400000 260.18000000
    83   1 261.23700000 268.96100000 256.00500000
    84   1 254.33900000 265.09400000 268.55400000
    85   1 260.53900000 256.14900000 266.32300000
    86   1 262.92600000 263.59400000 261.05700000
    87   1 260.32900000 269.54900000 253.50900000
    88   1 253.94600000 260.97700000 266.36100000
    89   1 263.44700000 265.15500000 256.88900000
    90   1 265.43000000 265.16600000 267.11800000
    91   1 268.76300000 257.27300000 258.39900000
    92   1 270.51400000 259.74300000 261.96700000
    93   1 262.45300000 255.89300000 252.91600000
    94   1 265.38800000 265.91700000 255.02700000
    95   1 268.93500000 260.66200000 257.16200000
    96   1 256.60200000 263.33200000 253.26000000
    97   1 262.01900000 257.33300000 255.15800000
    98   1 266.00900000 257.37700000 263.05900000
    99   1 259.01200000 270.47700000 255.82700000
   100   1 263.23000000 256.73100000 262.56200000
   101   1 256.13200000 259.58400000 261.68300000
   102   1 260.41700000 264.70300000 261.17800000
   103   1 265.31100000 255.87500000 261.04000000
   104   1 262.94700000 266.28100000 261.30100000
   105   1 255.53100000 266.71300000 256.71200000
   106   1 256.07400000 254.66100000 258.20300000
   107   1 258.64200000 255.64200000 264.21600000
   108   1 260.67400000 258.85800000 266.49200000
   109   1 263.36800000 254.17000000 261.67300000
   110   1 260.43900000 257.11300000 259.63800000
   111   1 264.94400000 270.40300000 262.36600000
   112   1 264.32600000 259.45600000 258.69500000
   113   1 266.07200000 262.67600000 267.74300000
   114   1 261.91600000 265.18500000 259.10700000
   115   1 253.19600000 262.37800000 262.12100000
   116   1 258.65600000 257.68200000 257.75800000
   117   1 256.48500000 258.93700000 264.27500000
   118   1 258.19900000 262.28300000 255.20000000
   119   1 259.70600000 262.50600000 252.80900000
   120   1 258.92600000 268.19900000 260.59400000
   121   1 267.46500000 268.04700000 263.50300000
   122   1 267.41500000 260.58100000 266.95900000
   123   1 265.42900000 260.50800000 271.69200000
   124   1 257.11900000 256.62400000 259.73800000
   125   1 262.16000000 258.04200000 257.77400000
   126   1 257.87000000 255.44800000 256.34700000
   127   1 262.82700000 265.57400000 265.96400000
   128   1 254.96100000 258.13700000 259.83800000
   129   1 256.42200000 261.61100000 265.06200000
   130   1 253.36500000 261.86400000 257.52600000
   131   1 258.71400000 268.16000000 267.29500000
   132   1 261.42500000 267.73800000 259.61900000
   133   1 265.12500000 266.52200000 264.86100000
   134   1 269.11900000 262.45700000 259.38300000
   135   1 261.00000000 257.82700000 268.99200000
   136   1 262.77100000 259.60200000 262.81400000
   137   1 262.75700000 259.93300000 255.43800000
   138   1 257.79400000 264.16100000 266.72100000
   139   1 269.69900000 265.19600000 259.18200000
   140   1 256.03900000 269.38600000 263.63200000
   141   1 258.79200000 258.32700000 270.70400000
   142   1 268.00900000 259.07100000 262.64900000
   143   1 258.98100000 255.04200000 258.81000000
   144   1 260.99700000 266.46600000 256.99100000
   145   1 254.28600000 260.38500000 263.74200000
   146   1 261.52200000 264.58200000 255.03700000
   147   1 261.83000000 260.17900000 252.96400000
   148   1 258.50500000 260.12100000 265.63000000
   149   1 254.92000000 255.60400000 260.93900000
   150   1 269.62900000 266.37100000 263.94800000
   151   1 258.28300000 264.61800000 251.52700000
   152   1 269.82400000 264.73400000 266.08900000
   153   1 258.28700000 266.72700000 256.40600000
   154   1 252.56600000 257.19000000 260.65400000
   155   1 261.14400000 254.61000000 260.36000000
   156   1 268.86700000 259.71200000 259.78400000
   157   1 261.21200000 264.23300000 270.91900000
   158   1 258.14500000 260.77800000 263.08000000
   159   1 254.28000000 263.12900000 264.48000000
   160   1 256.30100000 258.75400000 269.55300000
   161   1 263.55500000 262.14500000 263.27300000
   162   1 256.83700000 256.99000000 262.41100000
   163   1 258.21000000 252.89400000 257.44000000
   164   1 262.11800000 254.38400000 255.23100000
   165   1 262.51900000 252.32300000 259.63900000
   166   1 268.66300000 263.41500000 256.90400000
   167   1 265.01300000 260.81100000 256.55600000
   168   1 265.19400000 268.51500000 255.67300000
   169   1 262.03900000 264.87800000 263.42200000
   170   1 266.94500000 256.91100000 256.29100000
   171   1 264.10100000 258.23700000 264.67200000
   172   1 256.04800000 257.39100000 257.41400000
   173   1 264.57300000 260.95600000 253.77500000
   174   1 256.69000000 266.34600000 267.98200000
   175   1 267.07500000 257.75300000 260.44500000
   176   1 256.81800000 263.74600000 269.24000000
   177   1 260.90700000 265.05300000 252.38000000
   178   1 253.33300000 259.75500000 261.30000000
   179   1 258.32300000 263.25200000 262.07900000
   180   1 266.03500000 265.86100000 269.68000000
   181   1 258.12600000 270.31900000 262.13400000
   182   1 256.27500000 268.19300000 261.21300000
   183   1 259.85800000 255.40600000 254.22600000
   184   1 260.88100000 262.55300000 262.64600000
   185   1 269.55900000 259.63100000 268.26100000
   186   1 263.47500000 262.47300000 267.09900000
   187   1 267.25500000 255.10600000 259.35500000
   188   1 263.59700000 265.65600000 271.16900000
   189   1 264.47400000 255.84800000 254.86300000
   190   1 258.46300000 258.50600000 260.93300000
   191   1 257.80900000 266.43300000 265.41700000
   192   1 267.87200000 267.28900000 258.86000000
   193   1 267.26900000 263.63900000 265.58000000
   194   1 260.26500000 267.37300000 264.88600000
   195   1 263.67300000 262.73000000 271.52600000
   196   1 256.38100000 254.38800000 263.06800000
   197   1 262.48100000 259.95300000 268.13000000
   198   1 260.20300000 264.92000000 266.00700000
   199   1 260.34100000 259.32800000 256.34200000
   200   1 267.14100000 261.81500000 255.30600000
   201   1 263.75800000 261.10700000 260.77200000
   202   1 257.36000000 270.08600000 259.42000000
   203   1 267.15500000 265.38500000 263.43400000
   204   1 266.74000000 261.89600000 258.27100000
   205   1 267.42900000 254.37300000 264.81400000
   206   1 261.76100000 270.00900000 258.37300000
   207   1 265.75400000 263.00500000 260.61400000
   208   1 263.98500000 258.28500000 253.57500000
   209   1 252.93200000 259.26800000 258.55200000
   210   1 266.80300000 268.89900000 260.87300000
   211   1 264.56100000 261.17600000 269.26100000
   212   1 267.54600000 257.87800000 267.31800000
   213   1 260.28400000 260.40600000 269.72500000
   214   1 256.81700000 262.16400000 257.77900000
   215   1 265.78600000 254.58500000 256.94700000
   216   1 263.98800000 251.54900000 261.90500000
   217   1 261.04200000 253.60500000 257.74900000
   218   1 270.74400000 262.43000000 261.58600000
   219   1 255.88900000 262.10300000 262.43700000
   220   1 256.79600000 264.15700000 264.13900000
   221   1 264.96600000 267.70800000 262.51000000
   222   1 259.21500000 265.65300000 268.55600000
   223   1 254.42400000 264.78400000 254.60700000
   224   1 253.19100000 265.51600000 263.92500000
   225   1 264.93200000 253.87000000 266.08500000
   226   1 253.78900000 263.49800000 259.74500000
   227   1 268.20300000 261.57500000 261.76800000
   228   1 253.81200000 267.21500000 261.80600000
   229   1 256.82500000 269.17800000 256.80900000
   230   1 264.13600000 263.98400000 269.16100000
   231   1 264.03600000 262.56600000 258.47000000
   232   1 260.24700000 266.96900000 254.50200000
   233   1 254.75200000 268.59800000 258.88600000
   234   1 260.46200000 270.35000000 260.65100000
   235   1 258.24800000 267.74700000 263.10600000
   236   1 265.99000000 269.30400000 258.19700000
   237   1 266.43200000 259.19500000 254.88000000
   238   1 268.38400000 262.00300000 269.07600000
   239   1 260.47200000 261.51900000 267.04700000
   240   1 266.37100000 266.15200000 260.88800000
   241   1 256.13100000 268.35700000 266.15500000
   242   1 257.12100000 255.84300000 253.74200000
   243   1 265.41000000 261.40700000 265.36100000
   244   1 269.51400000 262.10600000 266.51900000
   245   1 255.28800000 261.26300000 268.86500000
   246   1 258.11700000 261.21100000 260.42600000
   247   1 260.66900000 260.48400000 264.29400000
   248   1 261.12600000 261.97900000 259.95800000
   249   1 263.45800000 262.72400000 255.64200000
   250   1 257.92700000 268.45400000 254.35600000
   251   1 263.37500000 268.24500000 266.31700000
   252   1 257.05300000 259.47000000 258.84800000
   253   1 259.06900000 267.19200000 252.13900000
   254   1 266.27300000 263.02500000 270.48400000
   255   1 259.38800000 266.06600000 259.04900000
   256   1 267.10100000 264.58400000 258.80800000
   257   1 262.17400000 259.04500000 260.23300000
   258   1 255.33200000 262.21400000 255.50700000
   259   1 266.05800000 253.32600000 261.36500000
   260   1 259.00800000 263.45100000 259.34500000
   261   1 259.43700000 261.64000000 257.46700000
   262   1 262.93000000 260.40400000 265.53000000
   263   1 265.42900000 263.48300000 253.89500000
   264   1 263.09000000 269.70900000 254.23700000
   265   1 262.70300000 260.09300000 270.96800000
   266   1 258.71400000 257.65500000 255.07900000
   267   1 259.90100000 259.65900000 259.03400000
   268   1 257.60100000 265.73400000 261.17500000
   269   1 262.89700000 267.05600000 255.04100000
   270   1 263.88100000 270.54500000 256.86300000
   271   1 254.94700000 264.57700000 262.07300000
   272   1 257.71100000 261.07500000 270.18500000
   273   1 262.67900000 268.97900000 261.64300000
   274   1 264.26200000 258.36600000 269.51600000
   275   1 254.32500000 257.72200000 262.82200000
   276   1 263.58500000 266.58200000 268.50400000
   277   1 265.88300000 267.94200000 267.22700000
   278   1 260.40700000 269.76500000 263.30700000
   279   1 262.88400000 257.52700000 267.04900000
   280   1 265.29400000 260.13100000 263.00200000
   281   1 268.02700000 264.47100000 268.09400000
   282   1 257.06800000 267.41500000 258.76600000
   283   1 270.71400000 261.67200000 264.65600000
   284   1 264.93100000 259.26500000 267.15500000
   285   1 255.19700000 259.94000000 257.00400000
   286   1 263.28000000 255.74500000 257.22100000
   287   1 269.41100000 259.28000000 265.55400000
   288   1 256.46241662 262.17400865 266.18900000
   289   1 260.45947767 265.21513673 253.14400000
   290   1 269.97442773 263.38240261 256.86300000
   291   1 265.16312061 264.42812714 257.87200000
   292   1 260.57319240 266.23186578 259.42300000
   293   1 261.74128781 266.42511721 265.01200000
   294   1 254.28843560 263.32315028 262.08900000
   295   1 270.69156528 256.69884998 258.37000000
   296   1 261.13326243 256.89883136 265.84300000
   297   1 263.05249457 264.50592002 253.12300000
   298   1 260.43773466 258.39560059 253.54900000
   299   1 257.80265526 265.87008689 259.86100000
   300   1 270.54737210 268.10584666 263.53500000
   301   1 263.19326993 261.50240770 269.06000000
   302   1 261.40064325 263.50901120 268.18400000
   303   1 268.92405744 268.55242759 265.74600000
   304   1 267.09963824 267.12701867 261.10200000
   305   1 258.86284564 267.11203108 257.64200000
   306   1 258.93315754 262.66184398 267.36300000
   307   1 256.75845812 259.66537148 265.00600000
   308   1 255.76627223 264.06570524 264.27300000
   309   1 260.95321485 269.99223916 261.25700000
