ITEM: TIMESTEP
374
ITEM: NUMBER OF ATOMS
309
ITEM: BOX BOUNDS pp pp pp
0 500
0 500
0 500
ITEM: ATOMS id type x y z c_pea 
1 1 266.622 258.899 268.527 -1.77203 
2 1 269.045 267.867 264.153 -1.66109 
3 1 257.349 256.435 254.527 -1.4833 
4 1 258.399 265.442 264.711 -2.99207 
5 1 262.645 256.064 257.891 -3.01513 
6 1 258.349 269.742 259.687 -2.21381 
7 1 262.942 269.495 257.391 -2.51447 
8 1 261.993 266.673 268.161 -2.49114 
9 1 262.852 256.762 263.808 -2.94515 
10 1 266.013 266.401 259.69 -2.843 
11 1 252.74 266.388 263.895 -1.37583 
12 1 265.225 255.101 254.163 -1.4823 
13 1 260.691 266.111 251.799 -1.72618 
14 1 259.336 267.88 265.769 -2.81122 
15 1 270.137 261.781 265.55 -1.74872 
16 1 256.899 268.577 255.506 -1.90126 
17 1 259.883 269.621 263.653 -2.58643 
18 1 260.356 268.819 268.323 -1.70974 
19 1 257.954 267.597 263.378 -2.88503 
20 1 254.079 254.508 262.746 -1.36145 
21 1 258.049 255.454 257.074 -2.33748 
22 1 257.883 258.602 270.165 -2.09567 
23 1 254.946 261.194 264.218 -2.86235 
24 1 264.899 265.565 264.909 -3.13411 
25 1 262.529 260.913 265.653 -3.3496 
26 1 264.846 252.289 258.13 -1.25934 
27 1 264.797 261.048 256.978 -3.19438 
28 1 255.036 266.844 258.874 -2.27625 
29 1 256.695 267.159 265.85 -2.40952 
30 1 263.731 264.772 267.285 -2.89145 
31 1 256.852 267.793 260.819 -2.61674 
32 1 260.489 256.103 264.94 -2.58404 
33 1 255.336 256.491 264.113 -2.53182 
34 1 262.814 253.728 259.34 -2.28011 
35 1 268.846 262.51 260.64 -2.7907 
36 1 257.653 263.293 255.778 -2.96945 
37 1 263.822 265.66 257.033 -2.91626 
38 1 263.615 267.753 255.309 -2.10823 
39 1 261.923 263.878 250.687 -1.35604 
40 1 267.686 255.642 258.066 -1.69778 
41 1 258.088 267.294 268.156 -1.68599 
42 1 268.707 262.007 263.347 -2.60284 
43 1 260.232 270.856 261.206 -2.21412 
44 1 261.286 261.594 269.299 -2.82931 
45 1 264.624 257.694 253.238 -1.97041 
46 1 258.981 259.485 262.702 -3.13914 
47 1 256.117 263.317 258.016 -3.02331 
48 1 257.355 265.487 259.39 -3.01312 
49 1 261.358 266.648 254.317 -2.43877 
50 1 252.993 264.399 262.108 -2.06447 
51 1 256.346 260.546 257.877 -2.95862 
52 1 266.46 263.815 260.569 -2.95736 
53 1 265.689 256.565 256.435 -2.76481 
54 1 268.096 264.329 268.887 -1.5305 
55 1 257.464 269.73 265.062 -1.77827 
56 1 265.313 256.364 264.985 -2.14697 
57 1 261.621 258.791 252.691 -1.75674 
58 1 259.076 267.009 256.106 -2.96071 
59 1 256.736 266.25 254.235 -2.11721 
60 1 260.341 262.298 256.5 -3.13558 
61 1 261.919 258.398 258.974 -3.01972 
62 1 259.398 258.815 265.209 -3.13564 
63 1 265.555 253.37 260.654 -1.71473 
64 1 265.452 270.452 258.137 -1.20074 
65 1 268.132 263.566 266.246 -2.79081 
66 1 261.37 261.513 252.269 -2.19531 
67 1 267.594 261.938 254.092 -2.55649 
68 1 261.48 255.9 260.298 -3.02476 
69 1 255.331 265.656 264.098 -2.78916 
70 1 263.446 262.752 270.741 -1.64765 
71 1 262.807 259.658 268.162 -2.96271 
72 1 254.715 265.085 266.666 -1.85334 
73 1 257.328 263.089 260.648 -3.10715 
74 1 260.8 255.268 256.095 -2.03264 
75 1 266.831 258.442 265.865 -2.31128 
76 1 264.426 257.725 267.152 -2.49953 
77 1 263.902 254.221 263.991 -1.82623 
78 1 256.63 255.39 262.017 -2.72328 
79 1 261.723 260.31 260.879 -3.06885 
80 1 267.218 257.099 254.156 -1.76415 
81 1 267.007 267.99 266.241 -1.87836 
82 1 261.345 258.002 256.407 -2.90378 
83 1 261.886 258.23 266.061 -3.0944 
84 1 253.005 260.155 259.702 -1.77399 
85 1 255.563 254.386 257.547 -1.47803 
86 1 260.293 256.953 254.127 -1.86035 
87 1 254.135 259.268 256.894 -1.76159 
88 1 266.037 264.082 253.332 -2.28903 
89 1 259.173 265.022 254.295 -3.0493 
90 1 269.067 266.106 266.821 -1.63614 
91 1 268.212 257.926 256.647 -2.17222 
92 1 259.513 265.475 262.143 -2.95343 
93 1 264.259 267.494 261.565 -3.10805 
94 1 261.908 268.519 266.129 -2.81484 
95 1 254.986 264.45 260.19 -3.00234 
96 1 262.737 257.938 261.45 -2.96129 
97 1 262.024 271.538 259.106 -1.83468 
98 1 260.046 270.55 266.176 -1.68489 
99 1 259.917 265.546 266.927 -2.91984 
100 1 256.913 265.408 262.032 -2.92934 
101 1 259.671 266.807 259.013 -3.1932 
102 1 263.096 252.677 261.814 -1.4847 
103 1 258.469 262.224 258.339 -3.07311 
104 1 258.006 259.375 267.527 -2.96097 
105 1 258.858 270.426 255.045 -1.53942 
106 1 267.842 267.143 261.756 -2.45844 
107 1 261.545 267.179 257.102 -3.12004 
108 1 263.445 267.837 264.105 -3.0398 
109 1 263.894 264.016 254.969 -2.8818 
110 1 263.747 262.944 252.452 -2.36704 
111 1 264.199 260.091 262.052 -3.25763 
112 1 258.916 254.472 263.224 -2.36085 
113 1 255.624 259.9 266.445 -2.89355 
114 1 263.215 259.395 254.804 -2.98643 
115 1 259.375 263.627 251.705 -1.9021 
116 1 262.169 265.865 265.529 -3.10928 
117 1 269.826 264.803 257.367 -1.71266 
118 1 256.343 253.895 264.251 -1.77001 
119 1 266.196 261.957 251.673 -1.8199 
120 1 255.433 255.267 266.569 -1.60228 
121 1 269.494 262.479 255.914 -2.00406 
122 1 264.693 269.934 262.701 -2.38101 
123 1 257.378 267.91 258.069 -2.57853 
124 1 255.202 258.583 259.312 -2.68749 
125 1 262.793 260.142 270.963 -1.83142 
126 1 263.003 265.453 262.975 -3.29181 
127 1 267.528 265.756 264.633 -2.7954 
128 1 263.266 268.982 268.665 -1.4932 
129 1 260.13 261.383 264.232 -3.07392 
130 1 261.26 268.927 259.483 -3.0089 
131 1 259.398 271.908 258.549 -1.51507 
132 1 255.708 258.058 268.485 -2.04582 
133 1 260.844 267.123 263.654 -3.13085 
134 1 255.856 257.098 256.963 -2.35063 
135 1 258.184 260.707 255.948 -2.98858 
136 1 261.14 271.472 256.486 -1.50722 
137 1 261.678 259.269 263.547 -3.24826 
138 1 253.856 261.875 257.656 -2.08043 
139 1 256.344 263.37 265.143 -3.14754 
140 1 253.212 261.664 262.17 -2.1451 
141 1 257.064 261.096 253.418 -1.72358 
142 1 267.123 261.711 268.114 -2.48034 
143 1 255.183 261.707 260.088 -3.04959 
144 1 265.442 263.666 269.098 -2.29219 
145 1 263.903 260.227 252.227 -2.07555 
146 1 266.293 268.984 260.432 -2.02956 
147 1 264.426 263.241 262.33 -3.11474 
148 1 268.817 260.832 251.947 -1.20866 
149 1 267.913 257.348 262.511 -2.01445 
150 1 268.736 259.874 261.672 -2.31599 
151 1 259.012 267.893 253.588 -2.03856 
152 1 262.365 261.797 263.005 -2.97262 
153 1 253.601 259.843 268.273 -1.43072 
154 1 260.114 260.912 266.936 -3.29877 
155 1 252.708 263.016 259.786 -1.94575 
156 1 261.671 257.739 271.087 -1.49271 
157 1 255.097 264.252 255.251 -1.98573 
158 1 261.663 266.525 260.914 -3.28266 
159 1 267.279 261.151 265.44 -3.00156 
160 1 257.722 253.779 259.311 -2.07099 
161 1 256.936 257.489 266.081 -2.88886 
162 1 264.19 258.873 264.666 -3.14685 
163 1 260.081 260.104 271.462 -1.88971 
164 1 257.565 270.046 262.274 -1.91598 
165 1 259.421 263.371 268.385 -2.81506 
166 1 265.059 260.357 266.792 -3.11833 
167 1 261.455 264.669 255.991 -2.9341 
168 1 256.287 259.001 255.119 -2.14298 
169 1 259.675 261.87 261.48 -3.2226 
170 1 268.463 257.776 259.624 -1.99507 
171 1 258.079 256.933 263.716 -2.97738 
172 1 257.715 258.269 258.547 -2.85093 
173 1 253.575 263.532 264.638 -2.2098 
174 1 265.062 254.972 258.521 -2.57354 
175 1 259.707 258.51 260.373 -3.04029 
176 1 256.999 263.758 253.185 -1.98655 
177 1 265.487 267.819 257.371 -2.1726 
178 1 260.027 253.362 260.978 -1.9784 
179 1 258.683 261.081 269.392 -2.64295 
180 1 254.511 262.307 266.964 -2.15972 
181 1 261.877 264.22 269.174 -2.4481 
182 1 265.217 263.859 258.323 -2.86386 
183 1 253.843 264.689 257.652 -2.10897 
184 1 254.492 266.67 261.667 -2.32256 
185 1 257.257 270.603 257.326 -1.52857 
186 1 254.523 256.963 261.452 -2.38759 
187 1 265.788 265.536 262.413 -3.06187 
188 1 266.508 263.419 263.977 -3.07502 
189 1 261.546 254.698 262.751 -2.392 
190 1 265.011 260.805 269.563 -2.21022 
191 1 268.244 264.7 254.913 -1.94396 
192 1 269.981 264.571 264.567 -2.01124 
193 1 254.062 267.683 265.876 -1.24528 
194 1 268.509 265.335 259.757 -2.43755 
195 1 257.13 258.02 261.338 -3.29711 
196 1 267.125 265.551 257.357 -2.44656 
197 1 270.086 259.943 256.85 -1.59407 
198 1 260.353 259.012 268.958 -2.88901 
199 1 259.775 259.863 258 -3.30179 
200 1 265.865 259.076 255.402 -3.00416 
201 1 270.485 262.202 258.449 -1.80239 
202 1 266.556 256.068 260.513 -2.38902 
203 1 266.561 259.473 263.445 -2.8501 
204 1 260.28 254.185 258.457 -2.08672 
205 1 255.52 261.602 255.565 -2.20303 
206 1 257.392 255.976 268.4 -1.69627 
207 1 263.463 262.224 267.918 -2.89833 
208 1 258.86 255.888 260.668 -3.04358 
209 1 268.901 259.823 267.158 -1.74064 
210 1 261.227 269.128 255.152 -2.03464 
211 1 257.676 260.914 265.046 -3.15188 
212 1 254.084 257.714 266.291 -1.95227 
213 1 264.311 267.383 266.732 -2.73497 
214 1 263.892 265.024 260.399 -3.19522 
215 1 260.82 264.044 263.996 -3.34466 
216 1 261.078 262.133 259.07 -3.14569 
217 1 260.531 259.985 254.918 -2.92292 
218 1 268.685 259.514 254.506 -1.98183 
219 1 262.887 255.6 266.235 -1.90766 
220 1 263.42 267.324 259.04 -2.97925 
221 1 266.53 259.578 252.861 -2.13097 
222 1 259.636 256.462 269.871 -1.5243 
223 1 263.998 259.904 259.356 -3.02784 
224 1 256.468 256.152 259.446 -2.79738 
225 1 259.58 264.16 259.916 -2.77063 
226 1 265.732 266.056 255.114 -2.16442 
227 1 252.605 265.85 259.81 -1.50802 
228 1 263.594 262.392 259.966 -3.12088 
229 1 262.97 262.963 257.305 -3.03929 
230 1 258.962 263.147 265.802 -2.9413 
231 1 258.549 258.88 253.477 -1.88612 
232 1 254.934 259.639 261.715 -2.58375 
233 1 259.74 263.018 271.056 -1.85184 
234 1 257.973 265.984 251.845 -1.46063 
235 1 261.793 264.932 258.704 -3.29481 
236 1 266.498 261.575 261.918 -3.03998 
237 1 263.144 256.548 255.169 -2.49492 
238 1 263.595 254.093 256.344 -1.97187 
239 1 268.336 264.506 262.363 -2.84927 
240 1 259.922 256.82 258.296 -2.93159 
241 1 264.453 257.325 259.553 -3.00908 
242 1 257.115 263.316 269.823 -1.84187 
243 1 262.058 268.978 262.069 -3.04552 
244 1 262.077 256.959 268.478 -2.21715 
245 1 259.558 257.103 267.235 -2.60101 
246 1 265.146 257.426 262.486 -2.99092 
247 1 257.334 264.791 267.301 -2.64579 
248 1 256.956 261.154 262.469 -2.88694 
249 1 254.612 266.976 256.084 -1.54855 
250 1 268.506 260.369 259.018 -2.52547 
251 1 253.618 258.634 263.77 -1.93241 
252 1 257.172 262.037 267.398 -2.88042 
253 1 269.793 262.304 268.18 -1.29366 
254 1 256.787 265.641 256.823 -2.76895 
255 1 252.875 260.417 265.714 -1.6074 
256 1 261.445 263.315 266.624 -3.11219 
257 1 264.539 266.358 269.294 -1.67983 
258 1 263.877 255.353 261.393 -3.03403 
259 1 270.89 263.256 262.369 -1.6102 
260 1 267.451 260.852 256.612 -2.98946 
261 1 264.85 261.388 264.272 -3.09683 
262 1 255.429 268.407 263.55 -1.98146 
263 1 261.707 263.757 261.364 -3.21465 
264 1 265.004 261.48 254.341 -3.03821 
265 1 259.553 268.111 261.388 -2.99169 
266 1 260.414 257.132 262.507 -2.97363 
267 1 268.514 263.648 252.22 -1.21956 
268 1 266.38 253.877 256.367 -1.49289 
269 1 266.276 258.895 258.134 -3.04203 
270 1 257.789 260.388 260.135 -3.08193 
271 1 261.508 264.047 253.401 -2.86024 
272 1 267.897 263.077 258.167 -3.01732 
273 1 266.349 265.516 267.19 -2.69591 
274 1 266.302 254.919 262.9 -1.73912 
275 1 262.409 270.458 264.285 -2.23634 
276 1 263.628 265.793 252.987 -1.9596 
277 1 262.211 260.441 257.178 -3.17788 
278 1 266.245 263.255 255.996 -2.9797 
279 1 263.343 263.465 264.84 -3.12173 
280 1 258.161 255.098 265.863 -2.07522 
281 1 256.375 258.934 263.873 -2.98362 
282 1 264.253 258.089 269.866 -1.74227 
283 1 257.258 252.778 261.805 -1.54428 
284 1 270.423 266.137 262.189 -1.61161 
285 1 266.113 261.457 259.284 -3.05639 
286 1 262.356 261.912 254.791 -3.04126 
287 1 270.206 291.008 274.693 0 
288 1 264.822 269.732 265.493 -1.98579 
289 1 266.329 259.067 260.746 -3.10738 
290 1 257.459 261.181 271.738 -1.34447 
291 1 256.012 260.629 269.337 -2.1586 
292 1 262.707 271.014 266.939 -1.34342 
293 1 259.236 264.676 257.386 -3.02957 
294 1 259.7 269.285 257.389 -2.84024 
295 1 262.755 271.676 261.817 -1.59191 
296 1 253.845 256.243 258.807 -1.58906 
297 1 259.683 265.727 269.703 -1.76167 
298 1 258.261 263.291 263.208 -3.13548 
299 1 259.441 262.289 254.012 -2.76317 
300 1 265.506 263.027 266.389 -3.07755 
301 1 255.072 253.989 260.253 -1.76176 
302 1 269.103 259.385 264.383 -1.93431 
303 1 267.561 269.823 262.74 -1.35167 
304 1 255.399 263.293 262.582 -3.04389 
305 1 263.754 269.764 260.117 -2.46998 
306 1 263.891 258.36 257.134 -3.00536 
307 1 266.066 267.836 263.736 -2.75095 
308 1 258.715 258.067 256.119 -2.895 
309 1 271.006 264.436 259.938 -1.505 
