ITEM: TIMESTEP
328
ITEM: NUMBER OF ATOMS
309
ITEM: BOX BOUNDS pp pp pp
0 500
0 500
0 500
ITEM: ATOMS id type x y z c_pea 
1 1 266.731 259.177 268.562 -1.80721 
2 1 270.035 267.347 264.354 -1.70106 
3 1 257.82 255.655 254.259 -1.27737 
4 1 258.661 265.51 264.101 -2.99726 
5 1 262.261 256.463 257.366 -2.92726 
6 1 258.499 270.211 259.848 -2.2737 
7 1 263.473 269.812 257.735 -2.30819 
8 1 259.994 267.571 268.111 -2.1193 
9 1 262.901 256.92 263.854 -3.03673 
10 1 266.417 266.822 259.999 -2.93057 
11 1 252.18 266.877 262.679 -1.50252 
12 1 264.889 254.15 255.836 -1.75564 
13 1 258.253 264.173 252.74 -1.83087 
14 1 258.958 267.69 265.611 -2.58351 
15 1 270.237 261.835 265.277 -1.92136 
16 1 256.69 268.306 255.449 -1.81655 
17 1 259.908 269.776 264.053 -2.57978 
18 1 261.45 269.858 268.474 -1.26393 
19 1 258.019 267.883 263.214 -2.64878 
20 1 255.03 253.012 261.128 -1.45123 
21 1 258.717 254.009 256.305 -1.70311 
22 1 257.84 258.749 270.018 -2.01812 
23 1 255.401 261.713 264.687 -2.81985 
24 1 265.122 265.65 265.014 -3.11503 
25 1 262.687 261.041 265.59 -3.15646 
26 1 265.504 252.436 257.962 -1.0876 
27 1 263.839 261.226 255.851 -3.16818 
28 1 255.135 266.695 258.582 -2.26541 
29 1 256.282 266.605 264.794 -2.78322 
30 1 264.028 265.091 267.474 -2.80668 
31 1 257.017 268.201 260.771 -2.61715 
32 1 260.51 255.869 264.726 -2.49707 
33 1 263.482 265.864 256.631 -2.97405 
34 1 263.739 268.264 255.429 -1.84072 
35 1 261.919 260.168 251.899 -1.94421 
36 1 268.7 256.236 257.815 -1.70969 
37 1 257.035 267.466 267.421 -1.66354 
38 1 268.488 261.904 263.265 -2.63292 
39 1 260.466 271.267 261.439 -2.1509 
40 1 261.139 261.92 268.848 -2.94261 
41 1 263.702 258.195 252.495 -1.90223 
42 1 258.402 259.137 262.725 -3.04941 
43 1 256.186 263.868 258.187 -3.1642 
44 1 257.49 265.865 259.505 -3.02262 
45 1 261.448 266.72 255.037 -2.56161 
46 1 252.158 264.099 262.332 -2.04853 
47 1 253.503 259.221 256.621 -1.50944 
48 1 266.546 264.055 260.534 -3.00176 
49 1 264.943 256.719 256.581 -2.91187 
50 1 268.448 264.361 268.893 -1.55659 
51 1 257 269.464 265.214 -1.819 
52 1 265.283 256.385 265.163 -2.12281 
53 1 260.773 257.684 253.211 -1.81376 
54 1 259.238 267.724 256.389 -2.87478 
55 1 256.679 265.997 254.023 -1.96242 
56 1 258.951 263.079 257.176 -3.10583 
57 1 261.812 258.465 259.09 -3.10918 
58 1 259.696 258.506 264.938 -3.13299 
59 1 265.598 253.694 260.454 -1.73357 
60 1 266.118 269.419 258.885 -1.55285 
61 1 268.369 263.628 266.212 -2.78277 
62 1 259.828 260.289 253.635 -2.4205 
63 1 266.51 260.808 254.653 -2.78283 
64 1 261.824 255.887 259.99 -3.13096 
65 1 254.377 265.33 263.235 -2.86108 
66 1 263.173 263.504 270.175 -1.76873 
67 1 262.91 259.955 268.151 -2.93793 
68 1 254.781 264.291 265.752 -2.3455 
69 1 256.897 263.443 261.002 -2.9145 
70 1 262.183 254.293 255.699 -1.67636 
71 1 266.923 258.544 265.845 -2.40676 
72 1 264.579 257.929 267.29 -2.47015 
73 1 263.73 254.344 264.035 -1.71224 
74 1 256.882 255.018 261.479 -2.84963 
75 1 261.724 260.397 260.946 -3.18506 
76 1 265.407 256.343 253.903 -1.88117 
77 1 267.848 268.062 266.2 -1.97516 
78 1 260.626 258.724 256.644 -3.24051 
79 1 262.102 258.45 266.088 -3.04736 
80 1 253.009 260.125 259.615 -1.96951 
81 1 256.026 254.507 256.665 -1.55841 
82 1 260.215 256.209 255.643 -2.60171 
83 1 255.16 257.135 257.464 -2.09656 
84 1 266.061 263.286 253.656 -2.26625 
85 1 259.179 265.345 255.079 -2.82461 
86 1 269.556 265.986 266.831 -1.73703 
87 1 269.606 257.038 255.346 -1.25452 
88 1 259.357 266.012 261.527 -3.27289 
89 1 264.399 267.706 261.848 -3.11338 
90 1 261.434 268.563 265.985 -2.75879 
91 1 254.681 264.671 260.44 -2.91461 
92 1 263.03 258.022 261.369 -3.05974 
93 1 271.171 263.857 260.005 -1.54321 
94 1 262.429 271.875 259.441 -1.77757 
95 1 259.254 270.077 266.796 -1.59822 
96 1 259.939 265.439 266.416 -2.81135 
97 1 256.688 265.88 262.082 -3.04982 
98 1 259.57 267.629 259.243 -3.0488 
99 1 262.868 253.269 260.693 -1.7357 
100 1 257.647 261.661 258.941 -3.03682 
101 1 258.2 258.958 267.346 -2.84839 
102 1 258.716 270.138 255.176 -1.55716 
103 1 268.313 267.134 262.17 -2.47304 
104 1 261.702 267.708 257.531 -3.05572 
105 1 263.56 268.067 264.461 -3.03867 
106 1 263.748 263.732 254.959 -2.83773 
107 1 263.635 263.467 252.239 -1.89879 
108 1 264.259 260.292 262.087 -3.24254 
109 1 259.048 254.029 262.984 -2.22537 
110 1 255.738 259.768 266.479 -2.73817 
111 1 257.32 261.348 271.25 -1.42433 
112 1 255.82 260.598 269.006 -2.14592 
113 1 263.652 269.881 266.868 -1.72255 
114 1 259.722 265.497 257.763 -2.92991 
115 1 260.022 269.884 257.692 -2.6382 
116 1 262.989 271.961 262.176 -1.55402 
117 1 254.194 255.573 261.667 -1.79552 
118 1 258.428 265.588 269.023 -1.85894 
119 1 259.068 263.422 262.521 -3.04574 
120 1 259.545 262.747 254.589 -2.87582 
121 1 265.725 263.215 266.507 -3.05235 
122 1 255.321 255.083 259.249 -2.20313 
123 1 269.214 259.428 264.371 -1.97852 
124 1 268.322 269.489 263.804 -1.53608 
125 1 254.587 262.753 262.342 -3.05563 
126 1 264.122 270.035 260.544 -2.44199 
127 1 263.403 258.807 257.026 -2.98016 
128 1 266.18 267.913 263.977 -2.88647 
129 1 262.214 259.481 254.604 -3.00092 
130 1 260.238 262.435 251.887 -1.66197 
131 1 262.385 266.019 265.677 -3.0237 
132 1 270.147 264.332 257.524 -1.55667 
133 1 256.471 253.315 263.568 -1.58534 
134 1 266.644 261.205 251.902 -1.56614 
135 1 255.557 255.367 266.669 -1.5127 
136 1 268.299 261.382 256.5 -2.55944 
137 1 264.755 270.16 263.232 -2.27682 
138 1 257.259 268.418 258.099 -2.47782 
139 1 254.424 257.798 260.027 -2.35783 
140 1 262.707 260.839 270.76 -1.88267 
141 1 263.199 265.642 263.085 -3.28493 
142 1 267.82 265.869 264.646 -2.95543 
143 1 262.749 267.392 268.075 -2.27877 
144 1 260.027 261.121 263.674 -3.05447 
145 1 261.654 269.313 259.746 -2.97169 
146 1 259.807 272.357 258.811 -1.48845 
147 1 255.69 257.823 268.262 -1.99905 
148 1 260.873 267.131 263.646 -3.43106 
149 1 257.696 256.591 256.802 -2.64351 
150 1 256.255 261.619 256.693 -2.83652 
151 1 261.723 271.763 256.766 -1.37028 
152 1 262.097 259.485 263.521 -3.01907 
153 1 253.691 261.813 257.544 -2.25947 
154 1 256.646 263.853 263.827 -3.11938 
155 1 252.326 261.217 262.245 -1.83441 
156 1 257.21 261.29 253.976 -2.21946 
157 1 267.384 261.862 268.187 -2.44232 
158 1 255.133 261.898 259.822 -2.95059 
159 1 265.737 263.875 269.159 -2.19437 
160 1 264.122 261.259 250.545 -1.13978 
161 1 266.655 269.179 261.545 -2.07064 
162 1 266.481 261.605 261.496 -3.07611 
163 1 268.631 262.164 253.637 -1.48911 
164 1 268.027 257.441 262.746 -2.06962 
165 1 269.029 259.964 261.581 -2.25694 
166 1 259.021 267.695 253.717 -1.68789 
167 1 262.368 262.16 262.986 -3.15311 
168 1 253.369 259.318 267.649 -1.40771 
169 1 260.145 260.762 266.527 -3.26672 
170 1 252.637 262.871 259.971 -2.13487 
171 1 261.7 258.348 271.063 -1.54901 
172 1 254.521 263.6 255.682 -2.00811 
173 1 261.875 266.941 261.05 -3.23428 
174 1 267.401 261.238 265.559 -2.9197 
175 1 258.099 254.589 258.912 -2.78526 
176 1 257.105 257.434 265.598 -2.87969 
177 1 264.417 258.998 264.782 -3.08056 
178 1 259.966 260.543 271.053 -1.94424 
179 1 257.737 270.434 262.47 -1.8809 
180 1 259.138 263.356 267.804 -2.66582 
181 1 265.173 260.566 266.844 -3.06087 
182 1 261.375 264.139 256.149 -3.26099 
183 1 256.259 259.069 255.819 -2.39949 
184 1 259.221 261.259 261.044 -3.0469 
185 1 268.88 257.801 260.004 -1.92316 
186 1 258.265 256.563 263.359 -2.92707 
187 1 258.043 258.979 257.984 -3.04458 
188 1 252.225 265.25 264.95 -1.46019 
189 1 266.259 255.088 258.202 -2.38251 
190 1 259.462 258.608 260.336 -3.10025 
191 1 257.137 263.689 255.339 -2.70558 
192 1 265.623 267.464 257.18 -2.10689 
193 1 260.179 253.489 260.514 -2.026 
194 1 258.491 261.094 268.834 -2.77255 
195 1 254.107 261.921 267.061 -1.96678 
196 1 261.412 264.856 268.572 -2.54656 
197 1 265.512 264.935 258.22 -3.04981 
198 1 253.523 264.571 257.974 -2.0391 
199 1 254.426 267.227 261.144 -2.11145 
200 1 257.551 271.095 257.449 -1.37612 
201 1 255.654 255.889 263.943 -2.47901 
202 1 266.029 265.71 262.505 -3.08242 
203 1 266.647 263.57 264.096 -2.8877 
204 1 261.529 254.945 262.451 -2.53464 
205 1 265.068 261.234 269.502 -2.22034 
206 1 268.203 263.991 255.591 -2.01061 
207 1 270.249 264.563 264.527 -2.11742 
208 1 253.76 267.522 264.887 -1.46352 
209 1 268.858 265.366 259.931 -2.47067 
210 1 256.241 257.556 261.925 -2.78568 
211 1 267.879 265.985 257.474 -2.0142 
212 1 269.119 258.958 257.433 -2.20115 
213 1 260.449 259.196 268.746 -2.86231 
214 1 260.084 260.557 258.589 -3.149 
215 1 264.787 258.82 254.845 -2.76215 
216 1 270.173 261.643 258.442 -1.79621 
217 1 266.573 256.288 260.616 -2.56511 
218 1 266.719 259.76 263.431 -2.94745 
219 1 260.789 254.283 258.032 -2.29891 
220 1 254.526 261.029 254.721 -1.6735 
221 1 257.779 256.179 268.033 -1.82618 
222 1 263.504 262.519 267.717 -2.8527 
223 1 259.283 255.97 260.922 -2.94113 
224 1 269.081 259.884 267.141 -1.71252 
225 1 261.304 269.403 255.356 -1.95341 
226 1 257.877 260.489 265.084 -3.05472 
227 1 254.34 257.587 265.674 -2.16015 
228 1 265.124 267.684 266.684 -2.5202 
229 1 264.111 265.228 260.563 -3.18693 
230 1 261.053 264.342 264.009 -3.12562 
231 1 261.186 262.95 258.673 -2.79451 
232 1 258.683 260.648 256.107 -2.93722 
233 1 269.005 259.602 254.514 -1.72376 
234 1 262.791 255.823 266.336 -1.99906 
235 1 263.845 267.545 259.193 -3.10498 
236 1 266.739 258.639 253.001 -1.84363 
237 1 259.792 256.777 269.834 -1.56814 
238 1 264.528 259.475 259.512 -2.99242 
239 1 257.156 257.051 259.507 -3.07945 
240 1 259.151 263.86 259.855 -2.81366 
241 1 265.879 265.403 255.448 -2.33113 
242 1 252.255 265.78 260.111 -1.59186 
243 1 263.292 262.55 260.377 -2.99879 
244 1 263.532 263.335 257.609 -3.04554 
245 1 258.877 263.015 265.183 -3.21271 
246 1 258.612 258.243 254.85 -2.28094 
247 1 254.714 260.071 261.766 -2.80987 
248 1 259.386 263.249 270.485 -1.89728 
249 1 255.579 263.39 253.152 -1.46041 
250 1 262.108 265.397 258.87 -2.97216 
251 1 268.867 262.546 260.623 -2.7455 
252 1 262.847 256.851 254.803 -2.57208 
253 1 263.6 254.371 258.322 -2.55085 
254 1 268.489 264.452 262.434 -2.82869 
255 1 259.773 256.786 258.387 -3.12121 
256 1 264.254 256.854 259.204 -3.14196 
257 1 256.814 263.317 269.311 -1.91807 
258 1 262.25 269.282 262.431 -2.99381 
259 1 262.344 257.238 268.654 -2.15462 
260 1 260.123 256.972 267.116 -2.42492 
261 1 265.295 257.578 262.725 -2.84899 
262 1 257.314 264.861 266.527 -2.73218 
263 1 257.046 261.4 262.643 -3.17804 
264 1 254.672 266.306 255.921 -1.6483 
265 1 267.717 260.565 259.119 -2.99302 
266 1 253.679 257.879 262.97 -2.01724 
267 1 256.859 262.204 266.877 -2.87953 
268 1 270.096 262.368 267.951 -1.35292 
269 1 257.202 265.96 256.819 -2.91953 
270 1 253.376 259.976 264.768 -2.20141 
271 1 261.332 263.19 266.385 -2.89847 
272 1 265.261 266.671 269.278 -1.43324 
273 1 264.02 255.548 261.58 -2.75526 
274 1 270.879 262.842 262.523 -1.77143 
275 1 265.859 260.105 257.163 -3.12991 
276 1 264.984 261.547 264.322 -3.028 
277 1 255.48 268.701 263.084 -1.94015 
278 1 261.466 264.24 261.319 -3.19797 
279 1 264.279 260.891 253.2 -2.72649 
280 1 259.824 268.682 261.598 -2.74786 
281 1 260.642 257.555 262.509 -2.98189 
282 1 252.899 262.662 264.554 -2.07422 
283 1 267.306 255.409 255.64 -1.75145 
284 1 266.632 257.912 258.422 -3.01202 
285 1 257.008 259.663 260.506 -3.01603 
286 1 261.273 264.591 253.384 -2.37714 
287 1 267.784 263.316 258.289 -2.95057 
288 1 266.781 265.631 267.183 -2.70309 
289 1 266.306 255.01 263.002 -1.71974 
290 1 262.409 270.78 264.647 -1.90099 
291 1 263.75 266.062 253.693 -1.80389 
292 1 262.761 260.916 258.369 -2.82511 
293 1 265.914 262.822 256.408 -3.09981 
294 1 263.506 263.614 264.993 -3.15016 
295 1 258.014 254.868 265.47 -2.05821 
296 1 255.903 259.144 263.935 -2.90147 
297 1 264.343 258.615 270.013 -1.73411 
298 1 257.723 252.498 261.047 -1.67132 
299 1 270.781 265.765 262.046 -1.68985 
300 1 265.465 262.049 258.989 -3.10903 
301 1 262.004 262.052 253.885 -2.76621 
302 1 251.38 279.896 269.757 0 
303 1 266.087 270.089 265.6 -1.61968 
304 1 266.619 258.96 260.924 -2.74613 
305 1 264.636 263.411 262.446 -3.00217 
306 1 255.467 259.69 258.375 -2.81943 
307 1 256.308 252.562 258.655 -1.33601 
308 1 261.195 261.444 256.318 -3.16808 
309 1 267.144 258.121 255.767 -2.72805 
