ITEM: TIMESTEP
316
ITEM: NUMBER OF ATOMS
309
ITEM: BOX BOUNDS pp pp pp
0 500
0 500
0 500
ITEM: ATOMS id type x y z c_pea 
1 1 261.636 268.778 269.258 -1.0909 
2 1 255.178 255.481 255.754 -1.60634 
3 1 267.682 267.88 257.301 -1.42611 
4 1 261.33 255.045 263.586 -2.75545 
5 1 264.965 266.938 257.999 -3.00917 
6 1 259.923 252.25 259.972 -1.51745 
7 1 253.676 257.778 256.062 -1.52372 
8 1 258.63 259.003 268.493 -2.86835 
9 1 262.58 268.407 263.76 -2.85898 
10 1 252.558 261.564 259.331 -1.75173 
11 1 265.743 254.808 263.467 -2.03919 
12 1 264.857 267.525 253.471 -1.64032 
13 1 260.502 257.839 252.972 -1.85601 
14 1 257.703 258.104 266.031 -2.89381 
15 1 253.663 266.635 265.417 -1.57875 
16 1 263.038 252.766 257.104 -1.52349 
17 1 258.682 258.453 263.468 -3.0813 
18 1 260.199 267.363 262.71 -3.11246 
19 1 256.433 257.17 268.225 -1.86994 
20 1 258.923 253.71 263.337 -1.83561 
21 1 270.536 263.134 260.91 -1.86844 
22 1 261.495 257.616 264.423 -3.05332 
23 1 266.481 258.357 269.372 -1.64024 
24 1 266.991 259.117 264.666 -2.88985 
25 1 256.235 259.901 267.62 -2.53353 
26 1 262.236 263.221 264.915 -3.22399 
27 1 261.464 271.625 261.118 -1.7422 
28 1 259.008 263.901 256.717 -3.08648 
29 1 264.314 254.124 259.096 -2.50954 
30 1 263.312 256.652 262.632 -3.07359 
31 1 257.494 261.395 269.628 -2.21201 
32 1 261.211 252.447 262.411 -1.72143 
33 1 264.888 269.521 264.899 -2.02536 
34 1 268.907 263.795 262.995 -2.68749 
35 1 263.641 270.546 259.751 -2.01949 
36 1 261.028 264.462 262.783 -3.22387 
37 1 263.74 255.72 265.106 -2.47696 
38 1 260.025 259.992 261.699 -3.2615 
39 1 258.887 264.946 254.147 -2.90375 
40 1 260.737 257.306 261.897 -3.26265 
41 1 264.93 263.693 265.54 -3.00197 
42 1 268.717 257.19 263.743 -2.03374 
43 1 261.519 271.595 255.75 -1.384 
44 1 259.262 268.163 258.079 -2.99934 
45 1 266.042 260.224 260.046 -3.01517 
46 1 259.226 260.177 253.408 -2.48464 
47 1 253.57 265.385 258.131 -1.96191 
48 1 253.501 263.583 266.337 -1.90425 
49 1 262.388 271.035 264.106 -1.61024 
50 1 256.759 255.458 266.039 -1.70192 
51 1 256.653 260.752 252.855 -1.75961 
52 1 261.803 260.655 257.574 -3.08366 
53 1 256.606 264.4 255.478 -2.72484 
54 1 259.566 262.836 264.422 -3.30316 
55 1 268.029 265.777 267.188 -2.21865 
56 1 267.415 261.608 263.711 -3.16561 
57 1 261.505 267.143 267.141 -2.5656 
58 1 269.748 265.784 261.278 -1.78456 
59 1 252.605 265.087 260.995 -1.71373 
60 1 256.181 264.652 258.083 -2.99454 
61 1 260.954 261.658 254.897 -2.8909 
62 1 269.616 257.526 260.711 -1.96214 
63 1 254.862 257.988 265.977 -1.98634 
64 1 255.364 265.959 260.349 -2.84473 
65 1 265.74 263.441 256.47 -2.75198 
66 1 264.407 257.899 256.286 -2.81112 
67 1 257.322 260.015 255.428 -2.90282 
68 1 255.679 258.28 254.155 -2.00713 
69 1 255.327 261.126 259.204 -2.9491 
70 1 258.997 272.055 259.556 -1.36127 
71 1 258.589 256.954 270.226 -1.44601 
72 1 256.594 266.369 262.877 -3.056 
73 1 257.446 254.091 260.711 -2.0778 
74 1 259.377 263.375 270.43 -2.04977 
75 1 262.21 267.641 252.827 -1.97686 
76 1 266.26 263.98 263.162 -3.00718 
77 1 264.996 256.81 258.603 -2.89979 
78 1 262.705 256.466 259.86 -3.15047 
79 1 257.705 258.201 252.185 -1.49115 
80 1 267.859 255.504 261.673 -1.88968 
81 1 266.525 258.797 257.779 -2.7754 
82 1 256.988 263.607 260.437 -3.1958 
83 1 261.059 269.055 256.345 -2.70965 
84 1 255.077 265.42 267.562 -1.90893 
85 1 258.962 256.318 267.564 -2.14202 
86 1 263.104 263.629 261.143 -3.33839 
87 1 260.63 269.713 253.704 -1.63229 
88 1 254.015 260.819 266.349 -2.01203 
89 1 263.446 264.881 256.914 -3.07829 
90 1 265.407 265.51 267.509 -2.80151 
91 1 268.738 257.244 258.105 -1.88513 
92 1 270.869 258.676 262.802 -1.48797 
93 1 262.129 257.073 255.002 -2.70177 
94 1 265.656 265.982 255.578 -2.41117 
95 1 268.231 260.524 256.744 -2.26162 
96 1 256.702 263.664 252.86 -1.78198 
97 1 260.522 255.741 256.781 -2.70489 
98 1 266.181 257.411 262.768 -2.96462 
99 1 258.887 270.657 257.068 -1.99871 
100 1 264.423 258.297 260.902 -3.18889 
101 1 256.18 259.117 262.245 -3.14433 
102 1 260.778 264.335 260.083 -3.05986 
103 1 265.208 255.678 261 -2.81766 
104 1 262.556 266.445 261.853 -3.1173 
105 1 255.366 266.662 256.368 -2.22641 
106 1 254.615 256.364 258.342 -2.09645 
107 1 259.138 256.148 264.8 -2.72344 
108 1 260.363 258.679 266.513 -3.0047 
109 1 262.843 254.334 261.395 -2.73065 
110 1 260.097 256.736 259.36 -3.1015 
111 1 264.281 270.03 262.314 -2.16205 
112 1 263.99 259.419 258.488 -3.16532 
113 1 266.091 262.781 267.716 -2.96574 
114 1 262.938 265.725 259.364 -3.09718 
115 1 251.432 260.126 262.345 -1.23158 
116 1 258.956 257.875 257.304 -2.9043 
117 1 256.452 257.093 263.933 -2.54156 
118 1 258.223 262.369 254.672 -2.93262 
119 1 259.908 262.764 252.619 -2.16807 
120 1 257.979 267.68 260.952 -2.93751 
121 1 267.259 268.392 264.226 -2.20277 
122 1 267.699 261.076 266.381 -2.80903 
123 1 264.574 259.788 271.169 -1.54202 
124 1 257.345 256.419 258.964 -2.93518 
125 1 261.86 257.957 257.612 -3.30347 
126 1 257.852 255.529 256.294 -2.45124 
127 1 262.894 264.9 266.886 -3.07859 
128 1 255.694 258.484 259.64 -2.91152 
129 1 254.719 262.387 264.241 -2.84989 
130 1 254.194 262.74 257.282 -2.3303 
131 1 258.97 267.121 266.441 -2.32056 
132 1 262.329 268.232 258.616 -3.12032 
133 1 263.928 267.031 265.629 -3.07607 
134 1 269.681 261.95 258.622 -2.2099 
135 1 261.086 257.466 268.79 -2.24701 
136 1 262.569 259.339 262.743 -3.24312 
137 1 262.975 259.848 255.405 -2.73749 
138 1 257.561 264.907 266.662 -2.85554 
139 1 269.713 264.674 258.734 -1.6682 
140 1 255.468 268.815 263.699 -1.64991 
141 1 259.06 259.56 271.147 -1.76542 
142 1 268.101 259.351 262.137 -3.18471 
143 1 258.954 254.323 258.481 -2.24411 
144 1 260.911 265.982 257.516 -3.38922 
145 1 253.81 259.957 263.718 -2.39583 
146 1 261.211 264.226 255.275 -2.93998 
147 1 262.646 262.99 253.185 -2.45902 
148 1 258.501 260.59 266.256 -2.88998 
149 1 255.814 256.385 261.277 -2.55739 
150 1 268.96 266.081 264.481 -2.30676 
151 1 258.644 264.997 251.429 -1.35231 
152 1 270.414 264.768 266.351 -1.33105 
153 1 256.864 266.741 254.005 -1.86249 
154 1 253.264 257.232 260.528 -1.59873 
155 1 260.201 254.695 261.09 -2.81736 
156 1 268.492 259.676 259.379 -2.68697 
157 1 262.235 265.964 269.418 -2.26113 
158 1 257.96 261.028 263.232 -3.16291 
159 1 252.049 261.883 264.58 -1.67995 
160 1 256.505 258.931 270.287 -1.44487 
161 1 264.195 262.283 263.318 -3.13678 
162 1 258.31 256.111 262.241 -2.73255 
163 1 256.212 254.123 258.076 -1.55533 
164 1 262.134 254.303 254.977 -1.59904 
165 1 262.745 252.023 259.992 -1.67455 
166 1 267.311 265.273 257.692 -2.32858 
167 1 265.286 260.824 256.593 -3.01421 
168 1 265.529 268.722 255.89 -1.93101 
169 1 263.774 265.031 263.645 -3.1927 
170 1 266.723 256.505 256.363 -1.99711 
171 1 264.362 258.321 264.462 -3.05945 
172 1 256.324 257.748 256.756 -2.91714 
173 1 264.616 261.071 253.738 -2.18317 
174 1 257.15 267.006 268.455 -1.51757 
175 1 266.965 257.641 260.216 -2.99249 
176 1 257.07 264.372 269.334 -1.91441 
177 1 263.795 265.285 251.749 -1.35725 
178 1 253.823 259.846 261.059 -2.61502 
179 1 259.341 262.655 261.646 -3.25054 
180 1 267.014 264.539 269.525 -1.75751 
181 1 257.49 270.148 261.995 -1.88935 
182 1 255.435 268.569 260.976 -2.08766 
183 1 259.748 255.47 254.183 -1.77249 
184 1 261.673 261.867 262.678 -3.1396 
185 1 270.035 260.566 267.608 -1.4647 
186 1 263.41 262.227 267.18 -3.15046 
187 1 267.037 255.123 258.95 -2.02823 
188 1 264.929 266.206 270.279 -1.4055 
189 1 264.543 255.745 254.66 -1.78164 
190 1 258.24 258.232 260.687 -3.10284 
191 1 258.816 265.543 264.284 -3.2014 
192 1 266.948 266.926 259.808 -2.58989 
193 1 267.629 263.703 265.503 -3.02081 
194 1 260.478 268.914 265.263 -2.12325 
195 1 262.075 263.947 271.212 -1.64547 
196 1 256.292 254.491 263.287 -1.60042 
197 1 262.292 259.915 268.021 -2.91887 
198 1 260.27 264.529 266.357 -3.10133 
199 1 260.464 259.104 255.541 -2.89554 
200 1 267.037 261.823 254.667 -1.80203 
201 1 263.62 260.926 260.922 -3.09293 
202 1 257.218 269.867 259.235 -2.2157 
203 1 266.279 265.973 264.947 -3.04703 
204 1 266.944 262.257 258.555 -3.1587 
205 1 266.458 256.593 265.402 -2.22395 
206 1 261.241 270.762 258.463 -2.37215 
207 1 265.593 262.661 260.98 -3.05736 
208 1 264.126 258.3 253.522 -1.82979 
209 1 253.314 259.042 258.482 -1.98259 
210 1 266.703 268.959 261.563 -2.07289 
211 1 264.912 260.533 268.578 -2.73486 
212 1 268.146 258.463 267.104 -1.96856 
213 1 260.219 261.066 269.193 -2.9046 
214 1 256.864 262.242 257.169 -3.15856 
215 1 265.48 254.126 256.691 -1.64251 
216 1 263.48 253.296 263.803 -1.6424 
217 1 261.592 254.253 258.851 -2.67215 
218 1 270.804 260.264 260.523 -1.89826 
219 1 255.618 261.73 261.87 -3.08252 
220 1 257.302 263.639 263.103 -3.06136 
221 1 264.948 267.44 263.076 -3.08806 
222 1 259.544 265.566 268.703 -2.46652 
223 1 253.92 264.574 255.31 -1.41221 
224 1 252.76 264.497 263.858 -2.06868 
225 1 264.921 256.103 267.628 -1.57592 
226 1 254.389 263.466 259.864 -2.61691 
227 1 268.145 261.808 261.022 -3.04435 
228 1 253.927 266.809 262.654 -2.07739 
229 1 256.497 269.14 256.692 -1.761 
230 1 264.046 263.921 269.176 -2.68633 
231 1 263.857 262.17 258.545 -3.26827 
232 1 260.708 266.82 254.96 -2.96616 
233 1 254.244 268.035 258.548 -1.55368 
234 1 259.674 269.584 260.296 -2.62285 
235 1 258.123 268.326 263.995 -2.44475 
236 1 265.88 269.393 258.708 -1.97438 
237 1 266.479 259.047 254.95 -2.0249 
238 1 267.612 260.844 269.059 -2.01222 
239 1 260.848 261.704 266.596 -3.08781 
240 1 265.059 265.464 261.277 -3.11513 
241 1 256.357 267.201 265.735 -2.26949 
242 1 256.921 255.769 253.608 -1.46499 
243 1 265.252 261.031 265.462 -3.06269 
244 1 269.902 262.299 265.359 -2.10858 
245 1 255.731 262.634 267.739 -2.28792 
246 1 257.684 260.821 260.533 -3.14717 
247 1 260.36 260.253 264.331 -3.0128 
248 1 261.322 261.72 259.988 -3.23393 
249 1 263.316 262.492 255.794 -3.09209 
250 1 258.63 268.651 255.13 -2.20031 
251 1 262.768 269.485 266.536 -1.90017 
252 1 257.33 259.805 258.093 -2.82632 
253 1 259.317 267.365 252.735 -1.91699 
254 1 265.7 262.268 270.51 -1.81977 
255 1 261.43 263.263 257.747 -3.16624 
256 1 267.573 264.362 260.437 -3.04962 
257 1 261.951 258.98 260.137 -3.07717 
258 1 255.392 262.092 254.842 -2.21261 
259 1 265.165 252.949 261.463 -1.60339 
260 1 258.972 262.579 258.997 -3.13335 
261 1 259.295 261.147 256.829 -2.96491 
262 1 262.755 260.265 265.338 -3.11577 
263 1 265.208 263.777 253.841 -2.05754 
264 1 263.231 269.593 254.475 -1.90978 
265 1 261.795 259.259 270.685 -2.02091 
266 1 258.361 257.708 254.73 -2.6345 
267 1 259.748 259.737 259.036 -3.02058 
268 1 258.777 265.288 261.605 -3.0285 
269 1 263.134 267.436 256.127 -2.92178 
270 1 263.554 270.094 257.103 -2.18874 
271 1 254.902 264.291 262.32 -2.80704 
272 1 260.854 261.555 271.856 -1.55936 
273 1 264.378 267.93 260.444 -3.07479 
274 1 263.794 258.024 269.227 -2.15621 
275 1 253.945 257.371 263.13 -1.72359 
276 1 263.981 267.722 268.237 -2.09804 
277 1 266.303 268.003 266.781 -2.06738 
278 1 260.093 270.072 262.901 -2.21417 
279 1 262.939 257.765 266.674 -2.73031 
280 1 265.457 260.056 262.68 -3.16829 
281 1 268.814 263.108 267.899 -2.15241 
282 1 256.798 267.277 258.589 -2.67002 
283 1 270.011 261.269 262.89 -2.23529 
284 1 265.458 258.68 266.854 -2.71174 
285 1 254.971 260.142 256.684 -2.50086 
286 1 263.184 255.604 257.11 -2.89363 
287 1 269.579 259.596 265.004 -2.1817 
288 1 257.062 262.58 265.471 -2.80941 
289 1 261.121 265.2 252.642 -2.34752 
290 1 268.552 263.238 256.481 -1.80706 
291 1 265.204 264.376 258.935 -2.89192 
292 1 260.512 266.959 260.109 -3.15444 
293 1 261.529 266.158 264.705 -3.06006 
294 1 252.988 262.37 262.006 -2.56778 
295 1 270.615 259.38 257.794 -1.31827 
296 1 261.31 255.657 266.382 -2.01305 
297 1 263.241 265.53 254.321 -2.65056 
298 1 262.01 260.193 252.898 -2.04962 
299 1 258.617 265.386 258.941 -3.15134 
300 1 269.318 268.199 262.489 -1.34266 
301 1 262.887 261.65 269.982 -2.66305 
302 1 261.371 263.459 268.589 -3.06514 
303 1 269.072 268.143 266.275 -1.18588 
304 1 267.328 266.318 262.399 -2.85987 
305 1 258.184 266.383 256.415 -3.00074 
306 1 258.719 262.83 267.761 -2.96839 
307 1 256.206 260.023 264.862 -2.9268 
308 1 255.556 264.807 264.874 -2.87848 
309 1 262.022 268.97 261.233 -2.86238 
