<?xml version="1.0" encoding="ISO-8859-1"?>
<modeling>
 <generator>
  <i name="program" type="string">vasp </i>
  <i name="version" type="string">5.2.2  </i>
  <i name="subversion" type="string">15Apr09 complex  parallel </i>
  <i name="platform" type="string">LinuxIFC </i>
  <i name="date" type="string">2013 08 21 </i>
  <i name="time" type="string">16:13:26 </i>
 </generator>
 <incar>
  <i type="int" name="ISTART">     1</i>
  <i type="string" name="PREC">accurate</i>
  <i type="int" name="ICHARG">     1</i>
  <i type="int" name="IBRION">     5</i>
  <i type="int" name="NFREE">     2</i>
  <i type="int" name="NSW">   191</i>
  <i type="int" name="ISIF">     2</i>
  <i name="ENCUT">    360.65550000</i>
  <i name="POTIM">      0.01000000</i>
  <i type="int" name="ISMEAR">     1</i>
  <i name="SIGMA">      0.20000000</i>
  <i type="logical" name="LWAVE"> F  </i>
  <i type="logical" name="LCHARG"> F  </i>
  <i type="logical" name="LPEAD"> F  </i>
  <i type="logical" name="LCALCPOL"> F  </i>
  <i type="logical" name="LCALCEPS"> F  </i>
  <v name="EFIELD_PEAD">      0.00000000      0.00000000      0.00000000</v>
  <i type="logical" name="LEFG"> F  </i>
 </incar>
 <kpoints>
  <generation param="Monkhorst-Pack">
   <v type="int" name="divisions">       2        2        2 </v>
   <v name="usershift">      0.00000000       0.00000000       0.00000000 </v>
   <v name="genvec1">      0.50000000       0.00000000       0.00000000 </v>
   <v name="genvec2">      0.00000000       0.50000000       0.00000000 </v>
   <v name="genvec3">      0.00000000       0.00000000       0.50000000 </v>
   <v name="shift">      0.50000000       0.50000000       0.50000000 </v>
  </generation>
  <varray name="kpointlist" >
   <v>       0.25000000       0.25000000       0.25000000 </v>
  </varray>
  <varray name="weights" >
   <v>       1.00000000 </v>
  </varray>
 </kpoints>
 <parameters>
  <separator name="general" >
   <i type="string" name="SYSTEM">unknown system</i>
   <i type="logical" name="LCOMPAT"> F  </i>
  </separator>
  <separator name="electronic" >
   <i type="string" name="PREC">accura</i>
   <i name="ENMAX">    360.65550000</i>
   <i name="ENAUG">    291.05200000</i>
   <i name="EDIFF">      0.00000100</i>
   <i type="int" name="IALGO">    38</i>
   <i type="int" name="IWAVPR">    11</i>
   <i type="int" name="NBANDS">     8</i>
   <i name="NELECT">      9.00000000</i>
   <separator name="electronic smearing" >
    <i type="int" name="ISMEAR">     1</i>
    <i name="SIGMA">      0.20000000</i>
   </separator>
   <separator name="electronic projectors" >
    <i type="logical" name="LREAL"> F  </i>
    <v name="ROPT">      0.00000000</v>
    <i type="int" name="LMAXPAW">  -100</i>
    <i type="int" name="LMAXMIX">     2</i>
   </separator>
   <separator name="electronic startup" >
    <i type="int" name="ISTART">     1</i>
    <i type="int" name="ICHARG">     1</i>
    <i type="int" name="INIWAV">     1</i>
   </separator>
   <separator name="electronic spin" >
    <i type="int" name="ISPIN">     1</i>
    <i type="logical" name="LNONCOLLINEAR"> F  </i>
    <v name="MAGMOM">      1.00000000      1.00000000      1.00000000</v>
    <i name="NUPDOWN">     -1.00000000</i>
    <i type="logical" name="LSORBIT"> F  </i>
    <v name="SAXIS">      0.00000000      0.00000000      1.00000000</v>
    <i type="logical" name="LSPIRAL"> F  </i>
    <v name="QSPIRAL">      0.00000000      0.00000000      0.00000000</v>
    <i type="logical" name="LZEROZ"> F  </i>
   </separator>
   <separator name="electronic exchange-correlation" >
    <i type="logical" name="LASPH"> F  </i>
    <i type="logical" name="LMETAGGA"> F  </i>
   </separator>
   <separator name="electronic convergence" >
    <i type="int" name="NELM">    60</i>
    <i type="int" name="NELMDL">     0</i>
    <i type="int" name="NELMIN">     2</i>
    <i name="ENINI">    360.65550000</i>
    <separator name="electronic convergence detail" >
     <i type="logical" name="LDIAG"> T  </i>
     <i name="WEIMIN">      0.00100000</i>
     <i name="EBREAK">      0.00000003</i>
     <i name="DEPER">      0.30000000</i>
     <i type="int" name="NRMM">     4</i>
     <i name="TIME">      0.40000000</i>
    </separator>
   </separator>
   <separator name="electronic mixer" >
    <i name="AMIX">      0.40000000</i>
    <i name="BMIX">      1.00000000</i>
    <i name="AMIN">      0.10000000</i>
    <i name="AMIX_MAG">      1.60000000</i>
    <i name="BMIX_MAG">      1.00000000</i>
    <separator name="electronic mixer details" >
     <i type="int" name="IMIX">     4</i>
     <i type="int" name="MAXMIX">   -45</i>
     <i name="WC">    100.00000000</i>
     <i type="int" name="INIMIX">     1</i>
     <i type="int" name="MIXPRE">     1</i>
     <i type="int" name="MREMOVE">     5</i>
    </separator>
   </separator>
   <separator name="electronic dipolcorrection" >
    <i type="logical" name="LDIPOL"> F  </i>
    <i type="logical" name="LMONO"> F  </i>
    <i type="int" name="IDIPOL">     0</i>
    <i name="EPSILON">      1.00000000</i>
    <v name="DIPOL">   -100.00000000   -100.00000000   -100.00000000</v>
    <i name="EFIELD">      0.00000000</i>
   </separator>
  </separator>
  <separator name="grids" >
   <i type="int" name="NGX">    24</i>
   <i type="int" name="NGY">    24</i>
   <i type="int" name="NGZ">    24</i>
   <i type="int" name="NGXF">    48</i>
   <i type="int" name="NGYF">    48</i>
   <i type="int" name="NGZF">    48</i>
   <i type="logical" name="ADDGRID"> F  </i>
  </separator>
  <separator name="ionic" >
   <i type="int" name="NSW">    73</i>
   <i type="int" name="IBRION">     5</i>
   <i type="int" name="ISIF">     2</i>
   <i name="PSTRESS">      0.00000000</i>
   <i name="EDIFFG">      0.00001000</i>
   <i type="int" name="NFREE">     2</i>
   <i name="POTIM">      0.01000000</i>
   <i name="SMASS">     -3.00000000</i>
  </separator>
  <separator name="ionic md" >
   <i name="TEBEG">      0.00010000</i>
   <i name="TEEND">      0.00010000</i>
   <i type="int" name="NBLOCK">     1</i>
   <i type="int" name="KBLOCK">     1</i>
   <i type="int" name="NPACO">   256</i>
   <i name="APACO">     16.00000000</i>
  </separator>
  <separator name="symmetry" >
   <i type="int" name="ISYM">     2</i>
   <i name="SYMPREC">      0.00001000</i>
  </separator>
  <separator name="dos" >
   <i type="logical" name="LORBIT"> F  </i>
   <v name="RWIGS">     -1.00000000</v>
   <i type="int" name="NEDOS">   301</i>
   <i name="EMIN">     10.00000000</i>
   <i name="EMAX">    -10.00000000</i>
   <i name="EFERMI">      0.00000000</i>
  </separator>
  <separator name="writing" >
   <i type="int" name="NWRITE">     2</i>
   <i type="logical" name="LWAVE"> F  </i>
   <i type="logical" name="LCHARG"> F  </i>
   <i type="logical" name="LPARD"> F  </i>
   <i type="logical" name="LVTOT"> F  </i>
   <i type="logical" name="LELF"> F  </i>
   <i type="logical" name="LOPTICS"> F  </i>
   <v name="STM">      0.00000000      0.00000000      0.00000000      0.00000000      0.00000000</v>
  </separator>
  <separator name="performance" >
   <i type="int" name="NPAR">     1</i>
   <i type="int" name="NSIM">     4</i>
   <i type="int" name="NBLK">    32</i>
   <i type="logical" name="LPLANE"> T  </i>
   <i type="logical" name="LSCALAPACK"> F  </i>
   <i type="logical" name="LSCAAWARE"> F  </i>
   <i type="logical" name="LSCALU"> F  </i>
   <i type="logical" name="LASYNC"> F  </i>
  </separator>
  <separator name="miscellaneous" >
   <i type="int" name="IDIOT">     3</i>
   <i type="logical" name="LMUSIC"> F  </i>
   <v name="POMASS">     26.98200000</v>
   <i type="logical" name="LCORR"> T  </i>
  </separator>
  <i type="logical" name="LREAL_COMPAT"> F  </i>
  <i type="logical" name="GGA_COMPAT"> T  </i>
  <i type="logical" name="LBERRY"> F  </i>
  <i type="int" name="ICORELEVEL">     0</i>
  <i type="logical" name="LDAU"> F  </i>
  <i type="int" name="I_CONSTRAINED_M">     0</i>
  <separator name="electronic exchange-correlation" >
   <i type="string" name="GGA">--</i>
   <i type="int" name="VOSKOWN">     0</i>
   <i type="logical" name="LHFCALC"> F  </i>
   <i type="logical" name="LHFONE"> F  </i>
   <i type="logical" name="LRHFCALC"> F  </i>
   <i type="logical" name="LTHOMAS"> F  </i>
   <i type="logical" name="LMODELHF"> F  </i>
   <i name="ENCUTFOCK">      0.00000000</i>
   <i name="ENCUT4O">     -1.00000000</i>
   <i type="int" name="EXXOEP">     0</i>
   <i type="int" name="FOURORBIT">     0</i>
   <i name="AEXX">      0.00000000</i>
   <i name="HFALPHA">      0.00000000</i>
   <i name="ALDAX">      1.00000000</i>
   <i name="AGGAX">      1.00000000</i>
   <i name="ALDAC">      1.00000000</i>
   <i name="AGGAC">      1.00000000</i>
   <i type="int" name="NKREDX">     1</i>
   <i type="int" name="NKREDY">     1</i>
   <i type="int" name="NKREDZ">     1</i>
   <i type="logical" name="SHIFTRED"> F  </i>
   <i type="logical" name="ODDONLY"> F  </i>
   <i type="logical" name="EVENONLY"> F  </i>
   <i type="int" name="LMAXFOCK">     0</i>
   <i type="int" name="NMAXFOCKAE">     0</i>
   <i name="HFSCREEN">      0.00000000</i>
   <i name="HFSCREENC">      0.00000000</i>
  </separator>
  <separator name="model GW" >
   <i type="int" name="MODEL_GW">     0</i>
   <i name="MODEL_EPS0">      8.57500000</i>
   <i name="MODEL_ALPHA">      1.00000000</i>
  </separator>
  <separator name="linear response parameters" >
   <i type="logical" name="LEPSILON"> F  </i>
   <i type="logical" name="LRPA"> F  </i>
   <i type="logical" name="LNABLA"> F  </i>
   <i type="logical" name="LVEL"> F  </i>
   <i type="int" name="KINTER">     0</i>
   <i name="CSHIFT">      0.10000000</i>
   <i name="OMEGAMAX">     -1.00000000</i>
  </separator>
  <separator name="orbital magnetization" >
   <i type="logical" name="ORBITALMAG"> F  </i>
   <i type="logical" name="LMAGBLOCH"> F  </i>
   <i type="logical" name="LCHIMAG"> F  </i>
   <i type="logical" name="LGAUGE"> T  </i>
   <i type="int" name="MAGATOM">     0</i>
   <v name="MAGDIPOL">      0.00000000      0.00000000      0.00000000</v>
   <v name="AVECCONST">      0.00000000      0.00000000      0.00000000</v>
  </separator>
  <separator name="response functions" >
   <i type="logical" name="LRPA"> T  </i>
   <i type="logical" name="LTCTE"> F  </i>
   <i type="logical" name="LTETE"> F  </i>
   <i type="logical" name="L2ORDER"> F  </i>
   <i type="logical" name="LGWLF"> F  </i>
   <i name="ENCUTGW">    240.43700000</i>
   <i name="ENCUTGWSOFT">     -2.00000000</i>
   <i name="ENCUTLF">     -1.00000000</i>
   <i type="int" name="LMAXMP2">    -1</i>
   <i name="SCISSOR">      0.00000000</i>
   <i type="int" name="NOMEGA">     0</i>
   <i type="int" name="NOMEGAR">     0</i>
   <i type="int" name="NBANDSGW">    -1</i>
   <i type="int" name="NBANDSLF">    -1</i>
   <i type="int" name="NELM">     1</i>
   <i type="int" name="DIM">     3</i>
   <i type="int" name="ANTIRES">     0</i>
   <i type="logical" name="LUSEW"> F  </i>
   <i name="OMEGAMAX">    -30.00000000</i>
   <i name="OMEGATL">   -200.00000000</i>
   <i type="int" name="OMEGAGRID">     0</i>
   <i name="CSHIFT">     -0.10000000</i>
   <i type="logical" name="SELFENERGY"> F  </i>
   <i type="logical" name="LSPECTRAL"> F  </i>
   <i type="logical" name="ODDONLYGW"> F  </i>
   <i type="logical" name="EVENONLYGW"> F  </i>
   <i type="int" name="NKREDLFX">     1</i>
   <i type="int" name="NKREDLFY">     1</i>
   <i type="int" name="NKREDLFZ">     1</i>
   <i type="int" name="MAXMEM">  1024</i>
   <i type="int" name="TELESCOPE">     0</i>
  </separator>
 </parameters>
 <atominfo>
  <atoms>       3 </atoms>
  <types>       1 </types>
  <array name="atoms" >
   <dimension dim="1">ion</dimension>
   <field type="string">element</field>
   <field type="int">atomtype</field>
   <set>
    <rc><c>Al</c><c>   1</c></rc>
    <rc><c>Al</c><c>   1</c></rc>
    <rc><c>Al</c><c>   1</c></rc>
   </set>
  </array>
  <array name="atomtypes" >
   <dimension dim="1">type</dimension>
   <field type="int">atomspertype</field>
   <field type="string">element</field>
   <field>mass</field>
   <field>valence</field>
   <field type="string">pseudopotential</field>
   <set>
    <rc><c>   3</c><c>Al</c><c>     26.98200000</c><c>      3.00000000</c><c> PAW_GGA Al 05Jan2001                   </c></rc>
   </set>
  </array>
 </atominfo>
 <structure name="initialpos" >
  <crystal>
   <varray name="basis" >
    <v>       3.50000000       0.00000000       0.00000000 </v>
    <v>       0.00000000       3.50000000       0.00000000 </v>
    <v>       0.00000000       0.00000000       3.50000000 </v>
   </varray>
   <i name="volume">     42.87500000 </i>
   <varray name="rec_basis" >
    <v>       0.28571429       0.00000000       0.00000000 </v>
    <v>       0.00000000       0.28571429       0.00000000 </v>
    <v>       0.00000000       0.00000000       0.28571429 </v>
   </varray>
  </crystal>
  <varray name="positions" >
   <v>       0.00000000       0.00000000       0.00000000 </v>
   <v>       0.00000000       0.50000000       0.50000000 </v>
   <v>       0.50000000       0.00000000       0.50000000 </v>
  </varray>
  <varray name="selective"  type="logical" >
   <v type="logical" >  T  F  F </v>
   <v type="logical" >  F  F  F </v>
   <v type="logical" >  F  F  F </v>
  </varray>
  <nose>
   <v>      -3.00000000       0.00000000       0.00010000       0.00010000 </v>
  </nose>
 </structure>
 <calculation>
  <scstep>
   <time name="dav">    0.18    0.06</time>
   <time name="total">    0.69    0.38</time>
   <energy>
    <i name="alphaZ">     -0.53451638 </i>
    <i name="ewald">   -222.29814539 </i>
    <i name="hartreedc">     -2.67604008 </i>
    <i name="XCdc">    -78.29240780 </i>
    <i name="pawpsdc">    106.97730018 </i>
    <i name="pawaedc">    -10.81747568 </i>
    <i name="eentropy">     -0.08252286 </i>
    <i name="bandstr">     37.72719588 </i>
    <i name="atom">    161.07115403 </i>
    <i name="e_fr_energy">     -8.92545810 </i>
    <i name="e_wo_entrp">     -8.84293524 </i>
    <i name="e_0_energy">     -8.89795048 </i>
   </energy>
  </scstep>
  <scstep>
   <time name="dav">    0.27    0.08</time>
   <time name="total">    0.67    0.39</time>
   <energy>
    <i name="e_fr_energy">     -8.75632258 </i>
    <i name="e_wo_entrp">     -8.67379971 </i>
    <i name="e_0_energy">     -8.72881495 </i>
   </energy>
  </scstep>
  <scstep>
   <time name="dav">    0.23    0.07</time>
   <time name="total">    0.63    0.38</time>
   <energy>
    <i name="e_fr_energy">     -8.70593369 </i>
    <i name="e_wo_entrp">     -8.62341082 </i>
    <i name="e_0_energy">     -8.67842607 </i>
   </energy>
  </scstep>
  <scstep>
   <time name="dav">    0.22    0.07</time>
   <time name="total">    0.66    0.38</time>
   <energy>
    <i name="e_fr_energy">     -8.70561582 </i>
    <i name="e_wo_entrp">     -8.62309296 </i>
    <i name="e_0_energy">     -8.67810820 </i>
   </energy>
  </scstep>
  <scstep>
   <time name="dav">    0.33    0.09</time>
   <time name="total">    0.83    0.41</time>
   <energy>
    <i name="e_fr_energy">     -8.70558916 </i>
    <i name="e_wo_entrp">     -8.62306630 </i>
    <i name="e_0_energy">     -8.67808154 </i>
   </energy>
  </scstep>
  <scstep>
   <time name="dav">    0.18    0.05</time>
   <time name="total">    0.70    0.37</time>
   <energy>
    <i name="e_fr_energy">     -8.70557715 </i>
    <i name="e_wo_entrp">     -8.62305429 </i>
    <i name="e_0_energy">     -8.67806953 </i>
   </energy>
  </scstep>
  <scstep>
   <time name="dav">    0.33    0.09</time>
   <time name="total">    0.72    0.37</time>
   <energy>
    <i name="alphaZ">     -0.53451638 </i>
    <i name="ewald">   -222.29814539 </i>
    <i name="hartreedc">     -4.23890998 </i>
    <i name="XCdc">    -77.71422405 </i>
    <i name="pawpsdc">    113.47112950 </i>
    <i name="pawaedc">    -17.64876326 </i>
    <i name="eentropy">     -0.08252286 </i>
    <i name="bandstr">     39.26922127 </i>
    <i name="atom">    161.07115403 </i>
    <i name="e_fr_energy">     -8.70557713 </i>
    <i name="e_wo_entrp">     -8.62305427 </i>
    <i name="e_0_energy">     -8.67806951 </i>
   </energy>
  </scstep>
  <structure>
   <crystal>
    <varray name="basis" >
     <v>       3.50000000       0.00000000       0.00000000 </v>
     <v>       0.00000000       3.50000000       0.00000000 </v>
     <v>       0.00000000       0.00000000       3.50000000 </v>
    </varray>
    <i name="volume">     42.87500000 </i>
    <varray name="rec_basis" >
     <v>       0.28571429       0.00000000       0.00000000 </v>
     <v>       0.00000000       0.28571429       0.00000000 </v>
     <v>       0.00000000       0.00000000       0.28571429 </v>
    </varray>
   </crystal>
   <varray name="positions" >
    <v>       0.00000000       0.00000000       0.00000000 </v>
    <v>       0.00000000       0.50000000       0.50000000 </v>
    <v>       0.50000000       0.00000000       0.50000000 </v>
   </varray>
  </structure>
  <varray name="forces" >
   <v>       0.00000000       0.00000000       0.00000000 </v>
   <v>       0.00000000       0.00000000       0.00000000 </v>
   <v>       0.00000000       0.00000000       0.00000000 </v>
  </varray>
  <varray name="stress" >
   <v>     445.90303087       0.00000000       0.00000000 </v>
   <v>       0.00000000     445.90303087       0.00000000 </v>
   <v>       0.00000000       0.00000000     445.90303087 </v>
  </varray>
  <energy>
   <i name="e_fr_energy">     -8.70557713 </i>
   <i name="e_wo_entrp">     -8.67806951 </i>
   <i name="e_0_energy">     -0.08252286 </i>
  </energy>
  <kpoints>
   <generation param="Monkhorst-Pack">
    <v type="int" name="divisions">       2        2        2 </v>
    <v name="usershift">      0.00000000       0.00000000       0.00000000 </v>
    <v name="genvec1">      0.50000000       0.00000000       0.00000000 </v>
    <v name="genvec2">      0.00000000       0.50000000       0.00000000 </v>
    <v name="genvec3">      0.00000000       0.00000000       0.50000000 </v>
    <v name="shift">      0.50000000       0.50000000       0.50000000 </v>
   </generation>
   <varray name="kpointlist" >
    <v>       0.25000000       0.25000000       0.25000000 </v>
   </varray>
   <varray name="weights" >
    <v>       1.00000000 </v>
   </varray>
  </kpoints>
  <time name="totalsc">    6.41    3.78</time>
 </calculation>
 <calculation>
  <scstep>
   <time name="dav">    0.18    0.05</time>
   <time name="total">    0.69    0.37</time>
   <energy>
    <i name="alphaZ">     -0.53451638 </i>
    <i name="ewald">   -222.29753425 </i>
    <i name="hartreedc">     -4.23887039 </i>
    <i name="XCdc">    -77.71427937 </i>
    <i name="pawpsdc">    113.48204611 </i>
    <i name="pawaedc">    -17.66016009 </i>
    <i name="eentropy">     -0.08239532 </i>
    <i name="bandstr">     39.26925559 </i>
    <i name="atom">    161.07115403 </i>
    <i name="e_fr_energy">     -8.70530006 </i>
    <i name="e_wo_entrp">     -8.62290474 </i>
    <i name="e_0_energy">     -8.67783496 </i>
   </energy>
  </scstep>
  <scstep>
   <time name="dav">    0.53    0.16</time>
   <time name="total">    0.94    0.47</time>
   <energy>
    <i name="e_fr_energy">     -8.70521306 </i>
    <i name="e_wo_entrp">     -8.62274898 </i>
    <i name="e_0_energy">     -8.67772503 </i>
   </energy>
  </scstep>
  <scstep>
   <time name="dav">    0.21    0.06</time>
   <time name="total">    0.62    0.37</time>
   <energy>
    <i name="e_fr_energy">     -8.70520271 </i>
    <i name="e_wo_entrp">     -8.62272131 </i>
    <i name="e_0_energy">     -8.67770891 </i>
   </energy>
  </scstep>
  <scstep>
   <time name="dav">    0.38    0.11</time>
   <time name="total">    0.68    0.38</time>
   <energy>
    <i name="alphaZ">     -0.53451638 </i>
    <i name="ewald">   -222.29753425 </i>
    <i name="hartreedc">     -4.23917503 </i>
    <i name="XCdc">    -77.71423993 </i>
    <i name="pawpsdc">    113.48246421 </i>
    <i name="pawaedc">    -17.66059915 </i>
    <i name="eentropy">     -0.08247965 </i>
    <i name="bandstr">     39.26972282 </i>
    <i name="atom">    161.07115403 </i>
    <i name="e_fr_energy">     -8.70520333 </i>
    <i name="e_wo_entrp">     -8.62272368 </i>
    <i name="e_0_energy">     -8.67771011 </i>
   </energy>
  </scstep>
  <structure>
   <crystal>
    <varray name="basis" >
     <v>       3.50000000       0.00000000       0.00000000 </v>
     <v>       0.00000000       3.50000000       0.00000000 </v>
     <v>       0.00000000       0.00000000       3.50000000 </v>
    </varray>
    <i name="volume">     42.87500000 </i>
    <varray name="rec_basis" >
     <v>       0.28571429       0.00000000       0.00000000 </v>
     <v>       0.00000000       0.28571429       0.00000000 </v>
     <v>       0.00000000       0.00000000       0.28571429 </v>
    </varray>
   </crystal>
   <varray name="positions" >
    <v>       0.00285714       0.00000000       0.00000000 </v>
    <v>       0.00000000       0.50000000       0.50000000 </v>
    <v>       0.50000000       0.00000000       0.50000000 </v>
   </varray>
  </structure>
  <varray name="forces" >
   <v>      -0.07496842       0.00000000       0.00000000 </v>
   <v>      -0.02073915       0.00000000       0.00000000 </v>
   <v>       0.09570757       0.00000000       0.00000000 </v>
  </varray>
  <varray name="stress" >
   <v>     445.94394779       0.00000000       0.00000000 </v>
   <v>       0.00000000     445.84342499       0.00000000 </v>
   <v>       0.00000000       0.00000000     446.01244774 </v>
  </varray>
  <energy>
   <i name="e_fr_energy">     -8.70520333 </i>
   <i name="e_wo_entrp">     -8.67771011 </i>
   <i name="e_0_energy">     -0.08247965 </i>
  </energy>
  <kpoints>
   <generation param="Monkhorst-Pack">
    <v type="int" name="divisions">       2        2        2 </v>
    <v name="usershift">      0.00000000       0.00000000       0.00000000 </v>
    <v name="genvec1">      0.50000000       0.00000000       0.00000000 </v>
    <v name="genvec2">      0.00000000       0.50000000       0.00000000 </v>
    <v name="genvec3">      0.00000000       0.00000000       0.50000000 </v>
    <v name="shift">      0.50000000       0.50000000       0.50000000 </v>
   </generation>
   <varray name="kpointlist" >
    <v>       0.25000000       0.25000000       0.25000000 </v>
   </varray>
   <varray name="weights" >
    <v>       1.00000000 </v>
   </varray>
  </kpoints>
  <time name="totalsc">    4.31    2.62</time>
 </calculation>
 <calculation>
  <scstep>
   <time name="dav">    0.18    0.05</time>
   <time name="total">    0.69    0.37</time>
   <energy>
    <i name="alphaZ">     -0.53451638 </i>
    <i name="ewald">   -222.29753425 </i>
    <i name="hartreedc">     -4.23863627 </i>
    <i name="XCdc">    -77.71424969 </i>
    <i name="pawpsdc">    113.48248114 </i>
    <i name="pawaedc">    -17.66061565 </i>
    <i name="eentropy">     -0.08226638 </i>
    <i name="bandstr">     39.26859180 </i>
    <i name="atom">    161.07115403 </i>
    <i name="e_fr_energy">     -8.70559164 </i>
    <i name="e_wo_entrp">     -8.62332526 </i>
    <i name="e_0_energy">     -8.67816952 </i>
   </energy>
  </scstep>
  <scstep>
   <time name="dav">    0.53    0.16</time>
   <time name="total">    0.94    0.47</time>
   <energy>
    <i name="e_fr_energy">     -8.70524209 </i>
    <i name="e_wo_entrp">     -8.62279594 </i>
    <i name="e_0_energy">     -8.67776004 </i>
   </energy>
  </scstep>
  <scstep>
   <time name="dav">    0.21    0.06</time>
   <time name="total">    0.62    0.37</time>
   <energy>
    <i name="e_fr_energy">     -8.70520049 </i>
    <i name="e_wo_entrp">     -8.62271742 </i>
    <i name="e_0_energy">     -8.67770613 </i>
   </energy>
  </scstep>
  <scstep>
   <time name="dav">    0.38    0.11</time>
   <time name="total">    0.83    0.41</time>
   <energy>
    <i name="e_fr_energy">     -8.70520294 </i>
    <i name="e_wo_entrp">     -8.62272328 </i>
    <i name="e_0_energy">     -8.67770972 </i>
   </energy>
  </scstep>
  <scstep>
   <time name="dav">    0.33    0.09</time>
   <time name="total">    0.68    0.37</time>
   <energy>
    <i name="alphaZ">     -0.53451638 </i>
    <i name="ewald">   -222.29753425 </i>
    <i name="hartreedc">     -4.23919326 </i>
    <i name="XCdc">    -77.71423477 </i>
    <i name="pawpsdc">    113.48247633 </i>
    <i name="pawaedc">    -17.66061061 </i>
    <i name="eentropy">     -0.08247980 </i>
    <i name="bandstr">     39.26973524 </i>
    <i name="atom">    161.07115403 </i>
    <i name="e_fr_energy">     -8.70520346 </i>
    <i name="e_wo_entrp">     -8.62272366 </i>
    <i name="e_0_energy">     -8.67771020 </i>
   </energy>
  </scstep>
  <structure>
   <crystal>
    <varray name="basis" >
     <v>       3.50000000       0.00000000       0.00000000 </v>
     <v>       0.00000000       3.50000000       0.00000000 </v>
     <v>       0.00000000       0.00000000       3.50000000 </v>
    </varray>
    <i name="volume">     42.87500000 </i>
    <varray name="rec_basis" >
     <v>       0.28571429       0.00000000       0.00000000 </v>
     <v>       0.00000000       0.28571429       0.00000000 </v>
     <v>       0.00000000       0.00000000       0.28571429 </v>
    </varray>
   </crystal>
   <varray name="positions" >
    <v>      -0.00285714       0.00000000       0.00000000 </v>
    <v>       0.00000000       0.50000000       0.50000000 </v>
    <v>       0.50000000       0.00000000       0.50000000 </v>
   </varray>
  </structure>
  <varray name="forces" >
   <v>       0.07493383       0.00000000       0.00000000 </v>
   <v>       0.02077416       0.00000000       0.00000000 </v>
   <v>      -0.09570799       0.00000000       0.00000000 </v>
  </varray>
  <varray name="stress" >
   <v>     445.94318483       0.00000000       0.00000000 </v>
   <v>       0.00000000     445.84370685       0.00000000 </v>
   <v>       0.00000000       0.00000000     446.01159513 </v>
  </varray>
  <energy>
   <i name="e_fr_energy">     -8.70520346 </i>
   <i name="e_wo_entrp">     -8.67771020 </i>
   <i name="e_0_energy">     -0.08247980 </i>
  </energy>
  <dynmat>
   <varray name="hessian" >
    <v>      -0.27778196 </v>
   </varray>
   <v name="eigenvalues"> -2.77781962E-01</v>
   <varray name="eigenvectors" >
    <v>   1.00000000E+00</v>
   </varray>
  </dynmat>
  <kpoints>
   <generation param="Monkhorst-Pack">
    <v type="int" name="divisions">       2        2        2 </v>
    <v name="usershift">      0.00000000       0.00000000       0.00000000 </v>
    <v name="genvec1">      0.50000000       0.00000000       0.00000000 </v>
    <v name="genvec2">      0.00000000       0.50000000       0.00000000 </v>
    <v name="genvec3">      0.00000000       0.00000000       0.50000000 </v>
    <v name="shift">      0.50000000       0.50000000       0.50000000 </v>
   </generation>
   <varray name="kpointlist" >
    <v>       0.25000000       0.25000000       0.25000000 </v>
   </varray>
   <varray name="weights" >
    <v>       1.00000000 </v>
   </varray>
  </kpoints>
  <time name="totalsc">    5.08    2.98</time>
  <eigenvalues>
   <array>
    <dimension dim="1">band</dimension>
    <dimension dim="2">kpoint</dimension>
    <dimension dim="3">spin</dimension>
    <field>eigene</field>
    <field>occ</field>
    <set>
     <set comment="spin 1">
      <set comment="kpoint 1">
       <r>   -0.8425    1.0000 </r>
       <r>    4.9144    1.0000 </r>
       <r>    5.1509    1.0000 </r>
       <r>    5.1510    1.0000 </r>
       <r>   10.5197    0.2588 </r>
       <r>   10.5246    0.2412 </r>
       <r>   11.4215    0.0000 </r>
       <r>   16.2846    0.0000 </r>
      </set>
     </set>
    </set>
   </array>
  </eigenvalues>
  <separator name="orbital magnetization" >
   <v name="MAGDIPOLOUT">      0.00000000      0.00000000      0.00000000</v>
  </separator>
  <dos>
   <i name="efermi">     10.45978887 </i>
   <total>
    <array>
     <dimension dim="1">gridpoints</dimension>
     <dimension dim="2">spin</dimension>
     <field>energy</field>
     <field>total</field>
     <field>integrated</field>
     <set>
      <set comment="spin 1">
       <r>  -2.8425   0.0000   0.0000 </r>
       <r>  -2.7721   0.0000   0.0000 </r>
       <r>  -2.7016   0.0000   0.0000 </r>
       <r>  -2.6312   0.0000   0.0000 </r>
       <r>  -2.5608   0.0000   0.0000 </r>
       <r>  -2.4904   0.0000   0.0000 </r>
       <r>  -2.4199   0.0000   0.0000 </r>
       <r>  -2.3495   0.0000   0.0000 </r>
       <r>  -2.2791   0.0000   0.0000 </r>
       <r>  -2.2087   0.0000   0.0000 </r>
       <r>  -2.1383   0.0000   0.0000 </r>
       <r>  -2.0678   0.0000   0.0000 </r>
       <r>  -1.9974   0.0000   0.0000 </r>
       <r>  -1.9270   0.0000   0.0000 </r>
       <r>  -1.8566   0.0000   0.0000 </r>
       <r>  -1.7861   0.0000   0.0000 </r>
       <r>  -1.7157   0.0000   0.0000 </r>
       <r>  -1.6453   0.0000   0.0000 </r>
       <r>  -1.5749   0.0000   0.0000 </r>
       <r>  -1.5044  -0.0004   0.0000 </r>
       <r>  -1.4340  -0.0029  -0.0002 </r>
       <r>  -1.3636  -0.0169  -0.0014 </r>
       <r>  -1.2932  -0.0718  -0.0065 </r>
       <r>  -1.2227  -0.2161  -0.0217 </r>
       <r>  -1.1523  -0.4136  -0.0508 </r>
       <r>  -1.0819  -0.2817  -0.0707 </r>
       <r>  -1.0115   0.9845  -0.0013 </r>
       <r>  -0.9411   3.8208   0.2677 </r>
       <r>  -0.8706   7.0531   0.7644 </r>
       <r>  -0.8002   8.3021   1.3491 </r>
       <r>  -0.7298   6.4871   1.8060 </r>
       <r>  -0.6594   3.1534   2.0280 </r>
       <r>  -0.5889   0.6014   2.0704 </r>
       <r>  -0.5185  -0.3703   2.0443 </r>
       <r>  -0.4481  -0.3807   2.0175 </r>
       <r>  -0.3777  -0.1787   2.0049 </r>
       <r>  -0.3072  -0.0551   2.0010 </r>
       <r>  -0.2368  -0.0122   2.0002 </r>
       <r>  -0.1664  -0.0020   2.0000 </r>
       <r>  -0.0960  -0.0002   2.0000 </r>
       <r>  -0.0255   0.0000   2.0000 </r>
       <r>   0.0449   0.0000   2.0000 </r>
       <r>   0.1153   0.0000   2.0000 </r>
       <r>   0.1857   0.0000   2.0000 </r>
       <r>   0.2561   0.0000   2.0000 </r>
       <r>   0.3266   0.0000   2.0000 </r>
       <r>   0.3970   0.0000   2.0000 </r>
       <r>   0.4674   0.0000   2.0000 </r>
       <r>   0.5378   0.0000   2.0000 </r>
       <r>   0.6083   0.0000   2.0000 </r>
       <r>   0.6787   0.0000   2.0000 </r>
       <r>   0.7491   0.0000   2.0000 </r>
       <r>   0.8195   0.0000   2.0000 </r>
       <r>   0.8900   0.0000   2.0000 </r>
       <r>   0.9604   0.0000   2.0000 </r>
       <r>   1.0308   0.0000   2.0000 </r>
       <r>   1.1012   0.0000   2.0000 </r>
       <r>   1.1717   0.0000   2.0000 </r>
       <r>   1.2421   0.0000   2.0000 </r>
       <r>   1.3125   0.0000   2.0000 </r>
       <r>   1.3829   0.0000   2.0000 </r>
       <r>   1.4533   0.0000   2.0000 </r>
       <r>   1.5238   0.0000   2.0000 </r>
       <r>   1.5942   0.0000   2.0000 </r>
       <r>   1.6646   0.0000   2.0000 </r>
       <r>   1.7350   0.0000   2.0000 </r>
       <r>   1.8055   0.0000   2.0000 </r>
       <r>   1.8759   0.0000   2.0000 </r>
       <r>   1.9463   0.0000   2.0000 </r>
       <r>   2.0167   0.0000   2.0000 </r>
       <r>   2.0872   0.0000   2.0000 </r>
       <r>   2.1576   0.0000   2.0000 </r>
       <r>   2.2280   0.0000   2.0000 </r>
       <r>   2.2984   0.0000   2.0000 </r>
       <r>   2.3689   0.0000   2.0000 </r>
       <r>   2.4393   0.0000   2.0000 </r>
       <r>   2.5097   0.0000   2.0000 </r>
       <r>   2.5801   0.0000   2.0000 </r>
       <r>   2.6505   0.0000   2.0000 </r>
       <r>   2.7210   0.0000   2.0000 </r>
       <r>   2.7914   0.0000   2.0000 </r>
       <r>   2.8618   0.0000   2.0000 </r>
       <r>   2.9322   0.0000   2.0000 </r>
       <r>   3.0027   0.0000   2.0000 </r>
       <r>   3.0731   0.0000   2.0000 </r>
       <r>   3.1435   0.0000   2.0000 </r>
       <r>   3.2139   0.0000   2.0000 </r>
       <r>   3.2844   0.0000   2.0000 </r>
       <r>   3.3548   0.0000   2.0000 </r>
       <r>   3.4252   0.0000   2.0000 </r>
       <r>   3.4956   0.0000   2.0000 </r>
       <r>   3.5661   0.0000   2.0000 </r>
       <r>   3.6365   0.0000   2.0000 </r>
       <r>   3.7069   0.0000   2.0000 </r>
       <r>   3.7773   0.0000   2.0000 </r>
       <r>   3.8477   0.0000   2.0000 </r>
       <r>   3.9182   0.0000   2.0000 </r>
       <r>   3.9886   0.0000   2.0000 </r>
       <r>   4.0590   0.0000   2.0000 </r>
       <r>   4.1294   0.0000   2.0000 </r>
       <r>   4.1999  -0.0001   2.0000 </r>
       <r>   4.2703  -0.0007   1.9999 </r>
       <r>   4.3407  -0.0047   1.9996 </r>
       <r>   4.4111  -0.0252   1.9978 </r>
       <r>   4.4816  -0.0989   1.9909 </r>
       <r>   4.5520  -0.2725   1.9717 </r>
       <r>   4.6224  -0.4665   1.9388 </r>
       <r>   4.6928  -0.2282   1.9228 </r>
       <r>   4.7633   1.1734   2.0054 </r>
       <r>   4.8337   3.8940   2.2796 </r>
       <r>   4.9041   6.9755   2.7709 </r>
       <r>   4.9745   9.6605   3.4512 </r>
       <r>   5.0449  12.6178   4.3398 </r>
       <r>   5.1154  15.8973   5.4593 </r>
       <r>   5.1858  16.8544   6.6463 </r>
       <r>   5.2562  13.1610   7.5731 </r>
       <r>   5.3266   6.6719   8.0430 </r>
       <r>   5.3971   1.4514   8.1452 </r>
       <r>   5.4675  -0.6967   8.0961 </r>
       <r>   5.5379  -0.8062   8.0393 </r>
       <r>   5.6083  -0.3971   8.0114 </r>
       <r>   5.6788  -0.1271   8.0024 </r>
       <r>   5.7492  -0.0290   8.0004 </r>
       <r>   5.8196  -0.0049   8.0000 </r>
       <r>   5.8900  -0.0006   8.0000 </r>
       <r>   5.9605  -0.0001   8.0000 </r>
       <r>   6.0309   0.0000   8.0000 </r>
       <r>   6.1013   0.0000   8.0000 </r>
       <r>   6.1717   0.0000   8.0000 </r>
       <r>   6.2421   0.0000   8.0000 </r>
       <r>   6.3126   0.0000   8.0000 </r>
       <r>   6.3830   0.0000   8.0000 </r>
       <r>   6.4534   0.0000   8.0000 </r>
       <r>   6.5238   0.0000   8.0000 </r>
       <r>   6.5943   0.0000   8.0000 </r>
       <r>   6.6647   0.0000   8.0000 </r>
       <r>   6.7351   0.0000   8.0000 </r>
       <r>   6.8055   0.0000   8.0000 </r>
       <r>   6.8760   0.0000   8.0000 </r>
       <r>   6.9464   0.0000   8.0000 </r>
       <r>   7.0168   0.0000   8.0000 </r>
       <r>   7.0872   0.0000   8.0000 </r>
       <r>   7.1577   0.0000   8.0000 </r>
       <r>   7.2281   0.0000   8.0000 </r>
       <r>   7.2985   0.0000   8.0000 </r>
       <r>   7.3689   0.0000   8.0000 </r>
       <r>   7.4393   0.0000   8.0000 </r>
       <r>   7.5098   0.0000   8.0000 </r>
       <r>   7.5802   0.0000   8.0000 </r>
       <r>   7.6506   0.0000   8.0000 </r>
       <r>   7.7210   0.0000   8.0000 </r>
       <r>   7.7915   0.0000   8.0000 </r>
       <r>   7.8619   0.0000   8.0000 </r>
       <r>   7.9323   0.0000   8.0000 </r>
       <r>   8.0027   0.0000   8.0000 </r>
       <r>   8.0732   0.0000   8.0000 </r>
       <r>   8.1436   0.0000   8.0000 </r>
       <r>   8.2140   0.0000   8.0000 </r>
       <r>   8.2844   0.0000   8.0000 </r>
       <r>   8.3549   0.0000   8.0000 </r>
       <r>   8.4253   0.0000   8.0000 </r>
       <r>   8.4957   0.0000   8.0000 </r>
       <r>   8.5661   0.0000   8.0000 </r>
       <r>   8.6365   0.0000   8.0000 </r>
       <r>   8.7070   0.0000   8.0000 </r>
       <r>   8.7774   0.0000   8.0000 </r>
       <r>   8.8478   0.0000   8.0000 </r>
       <r>   8.9182   0.0000   8.0000 </r>
       <r>   8.9887   0.0000   8.0000 </r>
       <r>   9.0591   0.0000   8.0000 </r>
       <r>   9.1295   0.0000   8.0000 </r>
       <r>   9.1999   0.0000   8.0000 </r>
       <r>   9.2704   0.0000   8.0000 </r>
       <r>   9.3408   0.0000   8.0000 </r>
       <r>   9.4112   0.0000   8.0000 </r>
       <r>   9.4816   0.0000   8.0000 </r>
       <r>   9.5521   0.0000   8.0000 </r>
       <r>   9.6225   0.0000   8.0000 </r>
       <r>   9.6929   0.0000   8.0000 </r>
       <r>   9.7633   0.0000   8.0000 </r>
       <r>   9.8337  -0.0003   8.0000 </r>
       <r>   9.9042  -0.0028   7.9998 </r>
       <r>   9.9746  -0.0182   7.9985 </r>
       <r>  10.0450  -0.0868   7.9924 </r>
       <r>  10.1154  -0.2992   7.9713 </r>
       <r>  10.1859  -0.6931   7.9225 </r>
       <r>  10.2563  -0.8303   7.8640 </r>
       <r>  10.3267   0.6513   7.9099 </r>
       <r>  10.3971   5.2099   8.2768 </r>
       <r>  10.4676  11.8853   9.1138 </r>
       <r>  10.5380  16.3830  10.2676 </r>
       <r>  10.6084  14.9497  11.3204 </r>
       <r>  10.6788   8.8359  11.9426 </r>
       <r>  10.7493   2.7485  12.1362 </r>
       <r>  10.8197  -0.3352  12.1126 </r>
       <r>  10.8901  -0.8789  12.0507 </r>
       <r>  10.9605  -0.5620  12.0111 </r>
       <r>  11.0309  -0.3673  11.9852 </r>
       <r>  11.1014  -0.4350  11.9546 </r>
       <r>  11.1718  -0.3587  11.9293 </r>
       <r>  11.2422   0.6966  11.9784 </r>
       <r>  11.3126   3.3301  12.2129 </r>
       <r>  11.3831   6.6468  12.6810 </r>
       <r>  11.4535   8.3154  13.2666 </r>
       <r>  11.5239   6.9081  13.7531 </r>
       <r>  11.5943   3.6381  14.0093 </r>
       <r>  11.6648   0.8744  14.0709 </r>
       <r>  11.7352  -0.3098  14.0491 </r>
       <r>  11.8056  -0.4057  14.0205 </r>
       <r>  11.8760  -0.2057  14.0060 </r>
       <r>  11.9465  -0.0670  14.0013 </r>
       <r>  12.0169  -0.0155  14.0002 </r>
       <r>  12.0873  -0.0026  14.0000 </r>
       <r>  12.1577  -0.0003  14.0000 </r>
       <r>  12.2281   0.0000  14.0000 </r>
       <r>  12.2986   0.0000  14.0000 </r>
       <r>  12.3690   0.0000  14.0000 </r>
       <r>  12.4394   0.0000  14.0000 </r>
       <r>  12.5098   0.0000  14.0000 </r>
       <r>  12.5803   0.0000  14.0000 </r>
       <r>  12.6507   0.0000  14.0000 </r>
       <r>  12.7211   0.0000  14.0000 </r>
       <r>  12.7915   0.0000  14.0000 </r>
       <r>  12.8620   0.0000  14.0000 </r>
       <r>  12.9324   0.0000  14.0000 </r>
       <r>  13.0028   0.0000  14.0000 </r>
       <r>  13.0732   0.0000  14.0000 </r>
       <r>  13.1437   0.0000  14.0000 </r>
       <r>  13.2141   0.0000  14.0000 </r>
       <r>  13.2845   0.0000  14.0000 </r>
       <r>  13.3549   0.0000  14.0000 </r>
       <r>  13.4253   0.0000  14.0000 </r>
       <r>  13.4958   0.0000  14.0000 </r>
       <r>  13.5662   0.0000  14.0000 </r>
       <r>  13.6366   0.0000  14.0000 </r>
       <r>  13.7070   0.0000  14.0000 </r>
       <r>  13.7775   0.0000  14.0000 </r>
       <r>  13.8479   0.0000  14.0000 </r>
       <r>  13.9183   0.0000  14.0000 </r>
       <r>  13.9887   0.0000  14.0000 </r>
       <r>  14.0592   0.0000  14.0000 </r>
       <r>  14.1296   0.0000  14.0000 </r>
       <r>  14.2000   0.0000  14.0000 </r>
       <r>  14.2704   0.0000  14.0000 </r>
       <r>  14.3409   0.0000  14.0000 </r>
       <r>  14.4113   0.0000  14.0000 </r>
       <r>  14.4817   0.0000  14.0000 </r>
       <r>  14.5521   0.0000  14.0000 </r>
       <r>  14.6225   0.0000  14.0000 </r>
       <r>  14.6930   0.0000  14.0000 </r>
       <r>  14.7634   0.0000  14.0000 </r>
       <r>  14.8338   0.0000  14.0000 </r>
       <r>  14.9042   0.0000  14.0000 </r>
       <r>  14.9747   0.0000  14.0000 </r>
       <r>  15.0451   0.0000  14.0000 </r>
       <r>  15.1155   0.0000  14.0000 </r>
       <r>  15.1859   0.0000  14.0000 </r>
       <r>  15.2564   0.0000  14.0000 </r>
       <r>  15.3268   0.0000  14.0000 </r>
       <r>  15.3972   0.0000  14.0000 </r>
       <r>  15.4676   0.0000  14.0000 </r>
       <r>  15.5381   0.0000  14.0000 </r>
       <r>  15.6085  -0.0002  14.0000 </r>
       <r>  15.6789  -0.0020  13.9998 </r>
       <r>  15.7493  -0.0122  13.9990 </r>
       <r>  15.8197  -0.0551  13.9951 </r>
       <r>  15.8902  -0.1787  13.9825 </r>
       <r>  15.9606  -0.3807  13.9557 </r>
       <r>  16.0310  -0.3703  13.9296 </r>
       <r>  16.1014   0.6014  13.9720 </r>
       <r>  16.1719   3.1534  14.1940 </r>
       <r>  16.2423   6.4871  14.6509 </r>
       <r>  16.3127   8.3021  15.2356 </r>
       <r>  16.3831   7.0531  15.7323 </r>
       <r>  16.4536   3.8208  16.0013 </r>
       <r>  16.5240   0.9845  16.0707 </r>
       <r>  16.5944  -0.2817  16.0508 </r>
       <r>  16.6648  -0.4136  16.0217 </r>
       <r>  16.7353  -0.2161  16.0065 </r>
       <r>  16.8057  -0.0718  16.0014 </r>
       <r>  16.8761  -0.0169  16.0002 </r>
       <r>  16.9465  -0.0029  16.0000 </r>
       <r>  17.0169  -0.0004  16.0000 </r>
       <r>  17.0874   0.0000  16.0000 </r>
       <r>  17.1578   0.0000  16.0000 </r>
       <r>  17.2282   0.0000  16.0000 </r>
       <r>  17.2986   0.0000  16.0000 </r>
       <r>  17.3691   0.0000  16.0000 </r>
       <r>  17.4395   0.0000  16.0000 </r>
       <r>  17.5099   0.0000  16.0000 </r>
       <r>  17.5803   0.0000  16.0000 </r>
       <r>  17.6508   0.0000  16.0000 </r>
       <r>  17.7212   0.0000  16.0000 </r>
       <r>  17.7916   0.0000  16.0000 </r>
       <r>  17.8620   0.0000  16.0000 </r>
       <r>  17.9325   0.0000  16.0000 </r>
       <r>  18.0029   0.0000  16.0000 </r>
       <r>  18.0733   0.0000  16.0000 </r>
       <r>  18.1437   0.0000  16.0000 </r>
       <r>  18.2141   0.0000  16.0000 </r>
       <r>  18.2846   0.0000  16.0000 </r>
      </set>
     </set>
    </array>
   </total>
  </dos>
 </calculation>
 <structure name="finalpos" >
  <crystal>
   <varray name="basis" >
    <v>       3.50000000       0.00000000       0.00000000 </v>
    <v>       0.00000000       3.50000000       0.00000000 </v>
    <v>       0.00000000       0.00000000       3.50000000 </v>
   </varray>
   <i name="volume">     42.87500000 </i>
   <varray name="rec_basis" >
    <v>       0.28571429       0.00000000       0.00000000 </v>
    <v>       0.00000000       0.28571429       0.00000000 </v>
    <v>       0.00000000       0.00000000       0.28571429 </v>
   </varray>
  </crystal>
  <varray name="positions" >
   <v>      -0.00285714       0.00000000       0.00000000 </v>
   <v>       0.00000000       0.50000000       0.50000000 </v>
   <v>       0.50000000       0.00000000       0.50000000 </v>
  </varray>
  <varray name="selective"  type="logical" >
   <v type="logical" >  T  F  F </v>
   <v type="logical" >  F  F  F </v>
   <v type="logical" >  F  F  F </v>
  </varray>
  <nose>
   <v>      -3.00000000       0.00000000       0.00010000       0.00010000 </v>
  </nose>
 </structure>
</modeling>
