   4   4   0   0
  0.1166400E+02  0.3600000E-09  0.3600000E-09  0.3600000E-09  0.5000000E-15
  1.000000000000000E-004
  CAR 
 unknown system                          
     10.55784411     -4.55374820  301      8.48539471      1.00000000
     -4.554  0.0000E+00  0.0000E+00
     -4.503  0.0000E+00  0.0000E+00
     -4.453  0.0000E+00  0.0000E+00
     -4.403  0.0000E+00  0.0000E+00
     -4.352  0.0000E+00  0.0000E+00
     -4.302  0.0000E+00  0.0000E+00
     -4.252  0.0000E+00  0.0000E+00
     -4.201 -0.1652E-29 -0.8322E-31
     -4.151 -0.9361E-28 -0.4799E-29
     -4.100 -0.4739E-26 -0.2435E-27
     -4.050 -0.2110E-24 -0.1087E-25
     -4.000 -0.8263E-23 -0.4271E-24
     -3.949 -0.2846E-21 -0.1476E-22
     -3.899 -0.8618E-20 -0.4488E-21
     -3.849 -0.2294E-18 -0.1200E-19
     -3.798 -0.5367E-17 -0.2824E-18
     -3.748 -0.1104E-15 -0.5841E-17
     -3.697 -0.1924E-14 -0.1028E-15
     -3.647 -0.3058E-13 -0.1643E-14
     -3.597 -0.4243E-12 -0.2301E-13
     -3.546 -0.5165E-11 -0.2832E-12
     -3.496 -0.5511E-10 -0.3059E-11
     -3.446 -0.5151E-09 -0.2901E-10
     -3.395 -0.4214E-08 -0.2413E-09
     -3.345 -0.3013E-07 -0.1759E-08
     -3.294 -0.1881E-06 -0.1123E-07
     -3.244 -0.1023E-05 -0.6277E-07
     -3.194 -0.4837E-05 -0.3064E-06
     -3.143 -0.1982E-04 -0.1305E-05
     -3.093 -0.7001E-04 -0.4831E-05
     -3.043 -0.2118E-03 -0.1550E-04
     -2.992 -0.5427E-03 -0.4284E-04
     -2.942 -0.1154E-02 -0.1010E-03
     -2.891 -0.1955E-02 -0.1994E-03
     -2.841 -0.2351E-02 -0.3178E-03
     -2.791 -0.1007E-02 -0.3686E-03
     -2.740  0.3843E-02 -0.1750E-03
     -2.690  0.1322E-01  0.4908E-03
     -2.640  0.2584E-01  0.1792E-02
     -2.589  0.3768E-01  0.3690E-02
     -2.539  0.4373E-01  0.5893E-02
     -2.488  0.4110E-01  0.7963E-02
     -2.438  0.3107E-01  0.9528E-02
     -2.388  0.1816E-01  0.1044E-01
     -2.337  0.7139E-02  0.1080E-01
     -2.287  0.4614E-03  0.1083E-01
     -2.237 -0.2111E-02  0.1072E-01
     -2.186 -0.2224E-02  0.1061E-01
     -2.136 -0.1477E-02  0.1053E-01
     -2.086 -0.7571E-03  0.1050E-01
     -2.035 -0.3179E-03  0.1048E-01
     -1.985 -0.1123E-03  0.1047E-01
     -1.934 -0.3383E-04  0.1047E-01
     -1.884 -0.8767E-05  0.1047E-01
     -1.834 -0.1965E-05  0.1047E-01
     -1.783 -0.3825E-06  0.1047E-01
     -1.733 -0.6481E-07  0.1047E-01
     -1.683 -0.9580E-08  0.1047E-01
     -1.632 -0.1237E-08  0.1047E-01
     -1.582 -0.1398E-09  0.1047E-01
     -1.531 -0.1383E-10  0.1047E-01
     -1.481 -0.1199E-11  0.1047E-01
     -1.431 -0.9112E-13  0.1047E-01
     -1.380 -0.6093E-14  0.1047E-01
     -1.330 -0.3693E-15  0.1047E-01
     -1.280  0.0000E+00  0.1047E-01
     -1.229  0.0000E+00  0.1047E-01
     -1.179  0.0000E+00  0.1047E-01
     -1.128  0.0000E+00  0.1047E-01
     -1.078  0.0000E+00  0.1047E-01
     -1.028  0.0000E+00  0.1047E-01
     -0.977  0.0000E+00  0.1047E-01
     -0.927  0.0000E+00  0.1047E-01
     -0.877  0.0000E+00  0.1047E-01
     -0.826  0.0000E+00  0.1047E-01
     -0.776  0.0000E+00  0.1047E-01
     -0.725  0.0000E+00  0.1047E-01
     -0.675  0.0000E+00  0.1047E-01
     -0.625  0.0000E+00  0.1047E-01
     -0.574  0.0000E+00  0.1047E-01
     -0.524  0.0000E+00  0.1047E-01
     -0.474  0.0000E+00  0.1047E-01
     -0.423  0.0000E+00  0.1047E-01
     -0.373  0.0000E+00  0.1047E-01
     -0.323  0.0000E+00  0.1047E-01
     -0.272  0.0000E+00  0.1047E-01
     -0.222  0.0000E+00  0.1047E-01
     -0.171  0.0000E+00  0.1047E-01
     -0.121  0.0000E+00  0.1047E-01
     -0.071  0.0000E+00  0.1047E-01
     -0.020  0.0000E+00  0.1047E-01
      0.030  0.0000E+00  0.1047E-01
      0.080  0.0000E+00  0.1047E-01
      0.131  0.0000E+00  0.1047E-01
      0.181  0.0000E+00  0.1047E-01
      0.232  0.0000E+00  0.1047E-01
      0.282  0.0000E+00  0.1047E-01
      0.332  0.0000E+00  0.1047E-01
      0.383  0.0000E+00  0.1047E-01
      0.433  0.0000E+00  0.1047E-01
      0.483  0.0000E+00  0.1047E-01
      0.534  0.0000E+00  0.1047E-01
      0.584  0.0000E+00  0.1047E-01
      0.635  0.0000E+00  0.1047E-01
      0.685  0.0000E+00  0.1047E-01
      0.735  0.0000E+00  0.1047E-01
      0.786 -0.1211E-27  0.1047E-01
      0.836 -0.6197E-26  0.1047E-01
      0.886 -0.2836E-24  0.1047E-01
      0.937 -0.1142E-22  0.1047E-01
      0.987 -0.4042E-21  0.1047E-01
      1.038 -0.1258E-19  0.1047E-01
      1.088 -0.3443E-18  0.1047E-01
      1.138 -0.8282E-17  0.1047E-01
      1.189 -0.1751E-15  0.1047E-01
      1.239 -0.3147E-14  0.1047E-01
      1.289 -0.5130E-13  0.1047E-01
      1.340 -0.7324E-12  0.1047E-01
      1.390 -0.9169E-11  0.1047E-01
      1.441 -0.1007E-09  0.1047E-01
      1.491 -0.9680E-09  0.1047E-01
      1.541 -0.8148E-08  0.1047E-01
      1.592 -0.5997E-07  0.1047E-01
      1.642 -0.3855E-06  0.1047E-01
      1.692 -0.2160E-05  0.1047E-01
      1.743 -0.1053E-04  0.1047E-01
      1.793 -0.4449E-04  0.1047E-01
      1.843 -0.1623E-03  0.1046E-01
      1.894 -0.5081E-03  0.1043E-01
      1.944 -0.1351E-02  0.1037E-01
      1.995 -0.2997E-02  0.1022E-01
      2.045 -0.5359E-02  0.9946E-02
      2.095 -0.7066E-02  0.9590E-02
      2.146 -0.4593E-02  0.9358E-02
      2.196  0.7296E-02  0.9726E-02
      2.246  0.3254E-01  0.1136E-01
      2.297  0.6907E-01  0.1484E-01
      2.347  0.1064E+00  0.2020E-01
      2.398  0.1294E+00  0.2672E-01
      2.448  0.1272E+00  0.3313E-01
      2.498  0.1009E+00  0.3821E-01
      2.549  0.6273E-01  0.4137E-01
      2.599  0.2752E-01  0.4276E-01
      2.649  0.4500E-02  0.4298E-01
      2.700 -0.5561E-02  0.4270E-01
      2.750 -0.7201E-02  0.4234E-01
      2.801 -0.5696E-02  0.4205E-01
      2.851 -0.4505E-02  0.4183E-01
      2.901 -0.4957E-02  0.4158E-01
      2.952 -0.6603E-02  0.4125E-01
      3.002 -0.7049E-02  0.4089E-01
      3.052 -0.1741E-02  0.4080E-01
      3.103  0.1471E-01  0.4154E-01
      3.153  0.4466E-01  0.4379E-01
      3.204  0.8308E-01  0.4798E-01
      3.254  0.1170E+00  0.5387E-01
      3.304  0.1317E+00  0.6051E-01
      3.355  0.1201E+00  0.6656E-01
      3.405  0.8784E-01  0.7098E-01
      3.455  0.4915E-01  0.7346E-01
      3.506  0.1770E-01  0.7435E-01
      3.556 -0.3792E-03  0.7433E-01
      3.607 -0.6703E-02  0.7399E-01
      3.657 -0.6423E-02  0.7367E-01
      3.707 -0.4085E-02  0.7346E-01
      3.758 -0.2030E-02  0.7336E-01
      3.808 -0.8304E-03  0.7332E-01
      3.858 -0.2865E-03  0.7330E-01
      3.909 -0.8444E-04  0.7330E-01
      3.959 -0.2143E-04  0.7330E-01
      4.009 -0.4707E-05  0.7330E-01
      4.060 -0.8980E-06  0.7330E-01
      4.110 -0.1492E-06  0.7330E-01
      4.161 -0.2163E-07  0.7330E-01
      4.211 -0.2741E-08  0.7330E-01
      4.261 -0.3038E-09  0.7330E-01
      4.312 -0.2949E-10  0.7330E-01
      4.362 -0.2509E-11  0.7330E-01
      4.412 -0.1871E-12  0.7330E-01
      4.463 -0.1219E-13  0.7330E-01
      4.513 -0.8331E-15  0.7330E-01
      4.564 -0.5078E-16  0.7330E-01
      4.614 -0.9599E-15  0.7330E-01
      4.664 -0.1659E-13  0.7330E-01
      4.715 -0.2496E-12  0.7330E-01
      4.765 -0.3299E-11  0.7330E-01
      4.815 -0.3822E-10  0.7330E-01
      4.866 -0.3881E-09  0.7330E-01
      4.916 -0.3451E-08  0.7330E-01
      4.967 -0.2685E-07  0.7330E-01
      5.017 -0.1825E-06  0.7330E-01
      5.067 -0.1082E-05  0.7330E-01
      5.118 -0.5586E-05  0.7330E-01
      5.168 -0.2504E-04  0.7330E-01
      5.218 -0.9712E-04  0.7329E-01
      5.269 -0.3241E-03  0.7328E-01
      5.319 -0.9227E-03  0.7323E-01
      5.370 -0.2212E-02  0.7312E-01
      5.420 -0.4348E-02  0.7290E-01
      5.470 -0.6616E-02  0.7257E-01
      5.521 -0.6434E-02  0.7224E-01
      5.571  0.9368E-03  0.7229E-01
      5.621  0.2050E-01  0.7332E-01
      5.672  0.5319E-01  0.7600E-01
      5.722  0.9193E-01  0.8063E-01
      5.773  0.1226E+00  0.8681E-01
      5.823  0.1314E+00  0.9342E-01
      5.873  0.1140E+00  0.9917E-01
      5.924  0.7885E-01  0.1031E+00
      5.974  0.4084E-01  0.1052E+00
      6.024  0.1227E-01  0.1058E+00
      6.075 -0.2726E-02  0.1057E+00
      6.125 -0.7029E-02  0.1053E+00
      6.175 -0.5941E-02  0.1050E+00
      6.226 -0.3540E-02  0.1048E+00
      6.276 -0.1676E-02  0.1048E+00
      6.327 -0.6582E-03  0.1047E+00
      6.377 -0.2188E-03  0.1047E+00
      6.427 -0.6224E-04  0.1047E+00
      6.478 -0.1527E-04  0.1047E+00
      6.528 -0.3248E-05  0.1047E+00
      6.578 -0.6242E-06  0.1047E+00
      6.629 -0.2609E-06  0.1047E+00
      6.679 -0.9666E-06  0.1047E+00
      6.730 -0.4810E-05  0.1047E+00
      6.780 -0.2106E-04  0.1047E+00
      6.830 -0.7971E-04  0.1047E+00
      6.881 -0.2593E-03  0.1047E+00
      6.931 -0.7187E-03  0.1047E+00
      6.981 -0.1671E-02  0.1046E+00
      7.032 -0.3168E-02  0.1044E+00
      7.082 -0.4571E-02  0.1042E+00
      7.133 -0.3911E-02  0.1040E+00
      7.183  0.2137E-02  0.1041E+00
      7.233  0.1669E-01  0.1049E+00
      7.284  0.3963E-01  0.1069E+00
      7.334  0.6529E-01  0.1102E+00
      7.384  0.8386E-01  0.1144E+00
      7.435  0.8682E-01  0.1188E+00
      7.485  0.7275E-01  0.1225E+00
      7.536  0.4828E-01  0.1249E+00
      7.586  0.2353E-01  0.1261E+00
      7.636  0.5930E-02  0.1264E+00
      7.687 -0.2687E-02  0.1263E+00
      7.737 -0.4737E-02  0.1260E+00
      7.787 -0.3765E-02  0.1258E+00
      7.838 -0.2320E-02  0.1257E+00
      7.888 -0.1593E-02  0.1256E+00
      7.939 -0.2004E-02  0.1255E+00
      7.989 -0.3729E-02  0.1253E+00
      8.039 -0.6578E-02  0.1250E+00
      8.090 -0.9192E-02  0.1246E+00
      8.140 -0.8139E-02  0.1241E+00
      8.190  0.1964E-02  0.1242E+00
      8.241  0.2644E-01  0.1256E+00
      8.291  0.6743E-01  0.1290E+00
      8.341  0.1218E+00  0.1351E+00
      8.392  0.1812E+00  0.1442E+00
      8.442  0.2342E+00  0.1560E+00
      8.493  0.2676E+00  0.1695E+00
      8.543  0.2697E+00  0.1831E+00
      8.593  0.2361E+00  0.1950E+00
      8.644  0.1745E+00  0.2038E+00
      8.694  0.1035E+00  0.2090E+00
      8.744  0.4336E-01  0.2112E+00
      8.795  0.5422E-02  0.2115E+00
      8.845 -0.1065E-01  0.2109E+00
      8.896 -0.1262E-01  0.2103E+00
      8.946 -0.8939E-02  0.2098E+00
      8.996 -0.4833E-02  0.2096E+00
      9.047 -0.2132E-02  0.2095E+00
      9.097 -0.7902E-03  0.2094E+00
      9.147 -0.2495E-03  0.2094E+00
      9.198 -0.6776E-04  0.2094E+00
      9.248 -0.1591E-04  0.2094E+00
      9.299 -0.3243E-05  0.2094E+00
      9.349 -0.5755E-06  0.2094E+00
      9.399 -0.8910E-07  0.2094E+00
      9.450 -0.1205E-07  0.2094E+00
      9.500 -0.1427E-08  0.2094E+00
      9.550 -0.1480E-09  0.2094E+00
      9.601 -0.1345E-10  0.2094E+00
      9.651 -0.1072E-11  0.2094E+00
      9.702 -0.7510E-13  0.2094E+00
      9.752 -0.4477E-14  0.2094E+00
      9.802 -0.3231E-15  0.2094E+00
      9.853  0.0000E+00  0.2094E+00
      9.903  0.0000E+00  0.2094E+00
      9.953  0.0000E+00  0.2094E+00
     10.004  0.0000E+00  0.2094E+00
     10.054  0.0000E+00  0.2094E+00
     10.104  0.0000E+00  0.2094E+00
     10.155  0.0000E+00  0.2094E+00
     10.205  0.0000E+00  0.2094E+00
     10.256  0.0000E+00  0.2094E+00
     10.306  0.0000E+00  0.2094E+00
     10.356  0.0000E+00  0.2094E+00
     10.407  0.0000E+00  0.2094E+00
     10.457  0.0000E+00  0.2094E+00
     10.507  0.0000E+00  0.2094E+00
     10.558  0.0000E+00  0.2094E+00
