Processors received = 1
script running on host compute-0-2.local
PBS_NODEFILE
compute-0-2
 running on    1 nodes
 distr:  one band on    1 nodes,    1 groups
 vasp.5.2.2 15Apr09 complex 
 POSCAR found type information on POSCAR  Fe
 POSCAR found :  1 types and    4 ions
 LDA part: xc-table for Ceperly-Alder, standard interpolation
 POSCAR, INCAR and KPOINTS ok, starting setup
 FFT: planning ...(           2 )
 reading WAVECAR
 entering main loop
       N       E                     dE             d eps       ncg     rms          rms(c)
DAV:   1     0.215514360765E+03    0.21551E+03   -0.10574E+04    40   0.142E+03
DAV:   2    -0.123439120241E+02   -0.22786E+03   -0.22121E+03    44   0.357E+02
DAV:   3    -0.270892768929E+02   -0.14745E+02   -0.13539E+02    56   0.118E+02
DAV:   4    -0.281925854229E+02   -0.11033E+01   -0.10115E+01    64   0.226E+01
DAV:   5    -0.282926547848E+02   -0.10007E+00   -0.93883E-01    48   0.528E+00    0.249E+01
DAV:   6    -0.374844468097E+02   -0.91918E+01   -0.32451E+02    56   0.122E+02    0.209E+01
DAV:   7    -0.278173038102E+02    0.96671E+01   -0.21535E+01    40   0.629E+01    0.104E+01
DAV:   8    -0.257045712513E+02    0.21127E+01   -0.52137E+00    40   0.324E+01    0.552E+00
DAV:   9    -0.265157404221E+02   -0.81117E+00   -0.14022E+00    40   0.174E+01    0.800E+00
DAV:  10    -0.255156552331E+02    0.10001E+01   -0.21766E+00    40   0.220E+01    0.398E+00
DAV:  11    -0.250865005036E+02    0.42915E+00   -0.16509E+00    40   0.188E+01    0.338E+00
DAV:  12    -0.253948430135E+02   -0.30834E+00   -0.13884E+00    56   0.262E+00    0.726E+00
DAV:  13    -0.252843275940E+02    0.11052E+00   -0.14821E+00    40   0.121E+01    0.190E+00
DAV:  14    -0.252820065783E+02    0.23210E-02   -0.43180E-03    40   0.615E-01    0.104E+00
DAV:  15    -0.252917902906E+02   -0.97837E-02   -0.33487E-03    40   0.594E-01    0.101E+00
DAV:  16    -0.252898184249E+02    0.19719E-02   -0.64198E-04    40   0.310E-01    0.426E-01
DAV:  17    -0.252912817165E+02   -0.14633E-02   -0.80662E-04    36   0.305E-01    0.461E-01
DAV:  18    -0.252910362247E+02    0.24549E-03   -0.10610E-04    20   0.144E-01    0.253E-01
DAV:  19    -0.252914676053E+02   -0.43138E-03   -0.28987E-04    28   0.228E-01    0.267E-01
DAV:  20    -0.252914676479E+02   -0.42622E-07   -0.64610E-05    20   0.107E-01

 ----------------------------------------------------------------------------- 
|                                                                             |
|           W    W    AA    RRRRR   N    N  II  N    N   GGGG   !!!           |
|           W    W   A  A   R    R  NN   N  II  NN   N  G    G  !!!           |
|           W    W  A    A  R    R  N N  N  II  N N  N  G       !!!           |
|           W WW W  AAAAAA  RRRRR   N  N N  II  N  N N  G  GGG   !            |
|           WW  WW  A    A  R   R   N   NN  II  N   NN  G    G                |
|           W    W  A    A  R    R  N    N  II  N    N   GGGG   !!!           |
|                                                                             |
|      Your highest band is occupied at some k-points! Unless you are         |
|      performing a calculation for an insulator or semiconductor, without    |
|      unoccupied bands, you have included TOO FEW BANDS!! Please increase    |
|      the parameter NBANDS in file 'INCAR' to ensure that the highest band   |
|      is unoccupied at all k-points. It is always recommended to             |
|      include a few unoccupied bands to accelerate the convergence of        |
|      molecular dynamics runs (even for insulators or semiconductors).       |
|      Because the presence of unoccupied bands improves wavefunction         |
|      prediction, and helps to suppress 'band-crossings.'                    |
|                                                                             |
 ----------------------------------------------------------------------------- 

   1 F= -.25291468E+02 E0= -.25204965E+02  d E =-.252915E+02
 curvature:   0.00 expect dE= 0.000E+00 dE for cont linesearch  0.000E+00
 trial: gam= 0.00000 g(F)=  0.249E-60 g(S)=  0.107E-01 ort = 0.000E+00 (trialstep = 0.100E+01)
 search vector abs. value=  0.107E-01
 bond charge predicted
       N       E                     dE             d eps       ncg     rms          rms(c)
DAV:   1    -0.255094344029E+02   -0.21797E+00   -0.25797E+00    40   0.252E+01    0.356E+00
DAV:   2    -0.255427219552E+02   -0.33288E-01   -0.31917E+00    40   0.180E+01    0.714E+00
DAV:   3    -0.253476880097E+02    0.19503E+00   -0.18573E+00    40   0.126E+01    0.279E+00
DAV:   4    -0.252791466654E+02    0.68541E-01   -0.24264E-01    40   0.513E+00    0.967E-01
DAV:   5    -0.252744787395E+02    0.46679E-02   -0.33033E-03    40   0.846E-01    0.282E-01
DAV:   6    -0.252736776154E+02    0.80112E-03   -0.14980E-03    40   0.573E-01    0.159E-01
DAV:   7    -0.252734040173E+02    0.27360E-03   -0.13734E-04    28   0.128E-01    0.855E-02
DAV:   8    -0.252733609504E+02    0.43067E-04   -0.92306E-05    20   0.111E-01

 ----------------------------------------------------------------------------- 
|                                                                             |
|           W    W    AA    RRRRR   N    N  II  N    N   GGGG   !!!           |
|           W    W   A  A   R    R  NN   N  II  NN   N  G    G  !!!           |
|           W    W  A    A  R    R  N N  N  II  N N  N  G       !!!           |
|           W WW W  AAAAAA  RRRRR   N  N N  II  N  N N  G  GGG   !            |
|           WW  WW  A    A  R   R   N   NN  II  N   NN  G    G                |
|           W    W  A    A  R    R  N    N  II  N    N   GGGG   !!!           |
|                                                                             |
|      Your highest band is occupied at some k-points! Unless you are         |
|      performing a calculation for an insulator or semiconductor, without    |
|      unoccupied bands, you have included TOO FEW BANDS!! Please increase    |
|      the parameter NBANDS in file 'INCAR' to ensure that the highest band   |
|      is unoccupied at all k-points. It is always recommended to             |
|      include a few unoccupied bands to accelerate the convergence of        |
|      molecular dynamics runs (even for insulators or semiconductors).       |
|      Because the presence of unoccupied bands improves wavefunction         |
|      prediction, and helps to suppress 'band-crossings.'                    |
|                                                                             |
 ----------------------------------------------------------------------------- 

   2 F= -.25273361E+02 E0= -.25183372E+02  d E =0.181067E-01
 trial-energy change:    0.018107  1 .order    0.006562   -0.010719    0.023843
 step:   0.3101(harm=  0.3101)  dis= 0.00000  next Energy=   -25.293130 (dE=-0.166E-02)
 bond charge predicted
       N       E                     dE             d eps       ncg     rms          rms(c)
DAV:   1    -0.255452804701E+02   -0.27188E+00   -0.15810E+00    40   0.172E+01    0.725E+00
DAV:   2    -0.264929453247E+02   -0.94766E+00   -0.11333E+01    40   0.374E+01    0.676E+00
DAV:   3    -0.255195564379E+02    0.97339E+00   -0.20412E+00    40   0.205E+01    0.355E+00
DAV:   4    -0.253779684866E+02    0.14159E+00   -0.12722E-01    40   0.510E+00    0.295E+00
DAV:   5    -0.253353271769E+02    0.42641E-01   -0.15841E-02    40   0.185E+00    0.251E+00
DAV:   6    -0.256598405635E+02   -0.32451E+00   -0.28671E+00    40   0.139E+01    0.809E+00
DAV:   7    -0.252881140798E+02    0.37173E+00   -0.13820E+00    40   0.956E+00    0.267E-01
DAV:   8    -0.252889296407E+02   -0.81556E-03   -0.36441E-03    40   0.879E-01    0.477E-01
DAV:   9    -0.252879596455E+02    0.97000E-03   -0.11731E-03    40   0.502E-01    0.184E-02
DAV:  10    -0.252879738562E+02   -0.14211E-04   -0.20252E-05    20   0.692E-02

 ----------------------------------------------------------------------------- 
|                                                                             |
|           W    W    AA    RRRRR   N    N  II  N    N   GGGG   !!!           |
|           W    W   A  A   R    R  NN   N  II  NN   N  G    G  !!!           |
|           W    W  A    A  R    R  N N  N  II  N N  N  G       !!!           |
|           W WW W  AAAAAA  RRRRR   N  N N  II  N  N N  G  GGG   !            |
|           WW  WW  A    A  R   R   N   NN  II  N   NN  G    G                |
|           W    W  A    A  R    R  N    N  II  N    N   GGGG   !!!           |
|                                                                             |
|      Your highest band is occupied at some k-points! Unless you are         |
|      performing a calculation for an insulator or semiconductor, without    |
|      unoccupied bands, you have included TOO FEW BANDS!! Please increase    |
|      the parameter NBANDS in file 'INCAR' to ensure that the highest band   |
|      is unoccupied at all k-points. It is always recommended to             |
|      include a few unoccupied bands to accelerate the convergence of        |
|      molecular dynamics runs (even for insulators or semiconductors).       |
|      Because the presence of unoccupied bands improves wavefunction         |
|      prediction, and helps to suppress 'band-crossings.'                    |
|                                                                             |
 ----------------------------------------------------------------------------- 

   3 F= -.25287974E+02 E0= -.25197449E+02  d E =0.349379E-02
 curvature:  -0.16 expect dE=-0.874E-02 dE for cont linesearch -0.874E-02
 ZBRENT: interpolating
 opt :   0.0942  next Energy=   -25.291972 (dE=-0.505E-03)
 bond charge predicted
       N       E                     dE             d eps       ncg     rms          rms(c)
DAV:   1    -0.253160686611E+02   -0.28109E-01   -0.19893E-01    40   0.536E+00    0.251E+00
DAV:   2    -0.255347962913E+02   -0.21873E+00   -0.83168E-01    40   0.132E+01    0.351E+00
DAV:   3    -0.253167721443E+02    0.21802E+00   -0.33090E-01    40   0.841E+00    0.200E+00
DAV:   4    -0.252996697386E+02    0.17102E-01   -0.77181E-03    40   0.123E+00    0.128E+00
DAV:   5    -0.252931389675E+02    0.65308E-02   -0.29842E-03    40   0.804E-01    0.673E-01
DAV:   6    -0.252913782623E+02    0.17607E-02   -0.13877E-03    40   0.562E-01    0.315E-01
DAV:   7    -0.252909045349E+02    0.47373E-03   -0.69807E-04    36   0.404E-01    0.416E-02
DAV:   8    -0.252908917518E+02    0.12783E-04   -0.13480E-05    20   0.426E-02

 ----------------------------------------------------------------------------- 
|                                                                             |
|           W    W    AA    RRRRR   N    N  II  N    N   GGGG   !!!           |
|           W    W   A  A   R    R  NN   N  II  NN   N  G    G  !!!           |
|           W    W  A    A  R    R  N N  N  II  N N  N  G       !!!           |
|           W WW W  AAAAAA  RRRRR   N  N N  II  N  N N  G  GGG   !            |
|           WW  WW  A    A  R   R   N   NN  II  N   NN  G    G                |
|           W    W  A    A  R    R  N    N  II  N    N   GGGG   !!!           |
|                                                                             |
|      Your highest band is occupied at some k-points! Unless you are         |
|      performing a calculation for an insulator or semiconductor, without    |
|      unoccupied bands, you have included TOO FEW BANDS!! Please increase    |
|      the parameter NBANDS in file 'INCAR' to ensure that the highest band   |
|      is unoccupied at all k-points. It is always recommended to             |
|      include a few unoccupied bands to accelerate the convergence of        |
|      molecular dynamics runs (even for insulators or semiconductors).       |
|      Because the presence of unoccupied bands improves wavefunction         |
|      prediction, and helps to suppress 'band-crossings.'                    |
|                                                                             |
 ----------------------------------------------------------------------------- 

   4 F= -.25290892E+02 E0= -.25200234E+02  d E =0.575896E-03
 curvature:  -0.01 expect dE=-0.232E-03 dE for cont linesearch -0.232E-03
 trial: gam= 0.00000 g(F)=  0.121E-60 g(S)=  0.259E-01 ort =-0.167E-01 (trialstep = 0.339E+00)
 search vector abs. value=  0.259E-01
 reached required accuracy - stopping structural energy minimisation
