Processors received = 1
script running on host compute-0-1.local
PBS_NODEFILE
compute-0-1
 running on    1 nodes
 distr:  one band on    1 nodes,    1 groups
 vasp.5.2.2 15Apr09 complex 
 POSCAR found type information on POSCAR  Al
 POSCAR found :  1 types and    3 ions
 LDA part: xc-table for Ceperly-Alder, standard interpolation
 POSCAR, INCAR and KPOINTS ok, starting setup
 FFT: planning ...(           1 )
 reading WAVECAR
 WARNING: chargedensity file is incomplete
 WARNING: random wavefunctions but no delay for mixing, default for NELMDL
 entering main loop
       N       E                     dE             d eps       ncg     rms          rms(c)
DAV:   1     0.928653852790E+01    0.92865E+01   -0.29631E+03    32   0.668E+02
DAV:   2    -0.719987200598E+01   -0.16486E+02   -0.16486E+02    40   0.752E+01
DAV:   3    -0.739375191994E+01   -0.19388E+00   -0.19399E+00    48   0.112E+01
DAV:   4    -0.739394025270E+01   -0.18833E-03   -0.18892E-03    48   0.408E-01
DAV:   5    -0.739394047125E+01   -0.21854E-06   -0.21846E-06    56   0.118E-02    0.278E+00
DAV:   6    -0.717640049625E+01    0.21754E+00   -0.21819E-01    56   0.258E+00    0.162E+00
DAV:   7    -0.709226693306E+01    0.84134E-01   -0.21692E-01    56   0.274E+00    0.292E-01
DAV:   8    -0.709114491807E+01    0.11220E-02   -0.12208E-02    32   0.823E-01    0.517E-02
DAV:   9    -0.709113608603E+01    0.88320E-05   -0.47689E-04    64   0.159E-01    0.169E-02
DAV:  10    -0.709112239785E+01    0.13688E-04   -0.39170E-05    40   0.390E-02    0.429E-03
DAV:  11    -0.709112178006E+01    0.61779E-06   -0.39927E-06    64   0.126E-02
   1 F= -.70911218E+01 E0= -.70991454E+01  d E =0.240707E-01
 Finite differences POTIM= 0.01000 DOF=   1
 bond charge predicted
       N       E                     dE             d eps       ncg     rms          rms(c)
DAV:   1    -0.709082895912E+01    0.29344E-03   -0.13925E-02    32   0.914E-01    0.337E-02
DAV:   2    -0.709080449285E+01    0.24466E-04   -0.38385E-04    64   0.152E-01    0.169E-02
DAV:   3    -0.709079755733E+01    0.69355E-05   -0.53038E-05    48   0.396E-02    0.480E-03
DAV:   4    -0.709079775287E+01   -0.19554E-06   -0.27181E-06    48   0.134E-02
   2 F= -.70907978E+01 E0= -.70988229E+01  d E =0.240753E-01
 Finite differences progress:
  Degree of freedom:   1/  1
  Displacement:        1/  2
  Total:               1/  2
 bond charge predicted
       N       E                     dE             d eps       ncg     rms          rms(c)
DAV:   1    -0.709092268558E+01   -0.12513E-03   -0.55712E-02    32   0.183E+00    0.674E-02
DAV:   2    -0.709082463788E+01    0.98048E-04   -0.15350E-03    64   0.304E-01    0.338E-02
DAV:   3    -0.709079682597E+01    0.27812E-04   -0.21167E-04    48   0.790E-02    0.958E-03
DAV:   4    -0.709079762114E+01   -0.79517E-06   -0.10715E-05    48   0.265E-02    0.393E-03
DAV:   5    -0.709079779123E+01   -0.17009E-06   -0.49443E-07    56   0.616E-03
   3 F= -.70907978E+01 E0= -.70988228E+01  d E =0.240751E-01
 Finite differences progress:
  Degree of freedom:   1/  1
  Displacement:        2/  2
  Total:               2/  2
 Finite differences POTIM=  1.000000000000000E-002
