    3    3  191    1
  0.1429167E+02  0.3500000E-09  0.3500000E-09  0.3500000E-09  0.5000000E-15
  1.000000000000000E-004
  CAR 
 unknown system                          
    9    1    8
 
  0.0000000E+00  0.0000000E+00  0.0000000E+00  0.1000000E+01
   1       -2.667366
   2        7.753222
   3        8.201523
   4        8.683099
   5        8.880850
   6        9.467257
   7       10.080810
   8       16.828536
