unknown system                          
           1
    10.906394    0.000000    0.000000
     0.000000   10.906394    0.000000
     0.000000    0.000000   10.906394
   Al   Mg
   1 106
Direct configuration=     1
   0.00379943  0.00203646  0.00694445
   0.98624594  0.99784407  0.33692402
   0.00196363  0.00128653  0.66542476
   0.99959637  0.33507764  0.00058618
   0.00098662  0.33124529  0.33379346
   0.00167746  0.33316415  0.66629507
   0.00147856  0.66692906  0.00180937
   0.00173877  0.66828712  0.33419983
   0.00165305  0.66733579  0.66684988
   0.33188675  0.00159329  0.00473090
   0.34684884  0.99811135  0.33640484
   0.33155508  0.00130315  0.66562023
   0.33426285  0.33462234  0.00085025
   0.33238663  0.33044134  0.33341817
   0.33201421  0.33297198  0.66627386
   0.33233090  0.66748017  0.00190241
   0.33172720  0.66893224  0.33387400
   0.33226470  0.66759930  0.66689852
   0.66630410  0.99961657  0.99872967
   0.66647675  0.00005345  0.33516040
   0.66618843  0.00014360  0.66928636
   0.66617741  0.33648642  0.99868893
   0.66635626  0.33632862  0.33553886
   0.66633322  0.33472746  0.66676163
   0.66623918  0.66772370  0.00036181
   0.66619692  0.66510033  0.33518035
   0.66640609  0.66703764  0.66767115
   0.98580378  0.17254788  0.16501051
   0.00124308  0.16671966  0.49710486
   0.00157686  0.16767364  0.83531414
   0.00143442  0.49887946  0.16839021
   0.00166500  0.49979580  0.49985264
   0.00134777  0.50073845  0.83363530
   0.00084955  0.83527535  0.16915558
   0.00038493  0.83425817  0.50032499
   0.00161963  0.83429129  0.83426979
   0.34759989  0.17093343  0.16444620
   0.33205771  0.16651211  0.49706790
   0.33212740  0.16718114  0.83560148
   0.33214371  0.49887199  0.16839545
   0.33192727  0.49972184  0.49957061
   0.33252664  0.50074815  0.83386558
   0.33222287  0.83695291  0.16843263
   0.33302242  0.83464617  0.50022627
   0.33209109  0.83481942  0.83474020
   0.66642418  0.16826358  0.16710762
   0.66647053  0.16809868  0.50293989
   0.66638835  0.16785157  0.83108670
   0.66613032  0.50346130  0.16745358
   0.66639784  0.50065182  0.50152092
   0.66636291  0.50160259  0.83310870
   0.66644668  0.83178463  0.16710471
   0.66639921  0.83234175  0.50261714
   0.66654489  0.83346875  0.83419011
   0.16669286  0.00502565  0.49165838
   0.16722962  0.00173638  0.83621731
   0.16701283  0.32638516  0.17183276
   0.16683009  0.33105919  0.49784545
   0.16715737  0.33308130  0.83484562
   0.16704516  0.66827047  0.16887896
   0.16698594  0.66857648  0.49919001
   0.16720646  0.66723603  0.83397632
   0.50346373  0.99947049  0.16624800
   0.50261282  0.00026895  0.50351136
   0.49811925  0.00045396  0.83380107
   0.50357982  0.33741651  0.16715669
   0.49854775  0.33395771  0.50081594
   0.49912357  0.33481340  0.83268206
   0.49817197  0.66714313  0.16777623
   0.49865741  0.66666079  0.50130325
   0.49886741  0.66762373  0.83395942
   0.82962873  0.99948079  0.16683052
   0.83017205  0.00020210  0.50382886
   0.83495952  0.00051910  0.83359771
   0.82909963  0.33787369  0.16722995
   0.83448569  0.33420381  0.50106026
   0.83383509  0.33501528  0.83252248
   0.83440657  0.66647158  0.16792491
   0.83436093  0.66640184  0.50148421
   0.83430995  0.66746431  0.83386398
   0.16784578  0.16593747  0.00891697
   0.16646515  0.08514543  0.25052459
   0.16694105  0.16659251  0.66549982
   0.16706718  0.49931629  0.00238338
   0.16693348  0.49864794  0.33364665
   0.16712698  0.50016308  0.66640445
   0.16745361  0.83473481  0.00344018
   0.16679514  0.84247770  0.33004267
   0.16702812  0.83570236  0.66610063
   0.50349528  0.16797621  0.99752598
   0.50346288  0.16868536  0.33550447
   0.49804541  0.16736178  0.66732186
   0.49923764  0.50202479  0.00022828
   0.49820948  0.50095352  0.33466353
   0.49867521  0.50077188  0.66700250
   0.49841309  0.83390464  0.00089648
   0.50285171  0.83118897  0.33475439
   0.49876726  0.83365790  0.66811018
   0.82901148  0.16866155  0.99753706
   0.82955021  0.16909342  0.33567131
   0.83495039  0.16760492  0.66743850
   0.83366965  0.50195718  0.00006255
   0.83463008  0.50098433  0.33490478
   0.83444582  0.50080085  0.66701316
   0.83427874  0.83325686  0.00099894
   0.82994783  0.83060344  0.33496992
   0.83432191  0.83341236  0.66816905
