Processors received = 1
script running on host compute-0-1.local
PBS_NODEFILE
compute-0-1
 running on    1 nodes
 distr:  one band on    1 nodes,    1 groups
 vasp.5.2.2 15Apr09 complex 
 POSCAR found type information on POSCAR  Mg Al
 POSCAR found :  2 types and   31 ions

 ----------------------------------------------------------------------------- 
|                                                                             |
|  ADVICE TO THIS USER RUNNING 'VASP/VAMP'   (HEAR YOUR MASTER'S VOICE ...):  |
|                                                                             |
|      You have a (more or less) 'large supercell' and for larger cells       |
|      it might be more efficient to use real space projection operators      |
|      So try LREAL= Auto  in the INCAR   file.                               |
|      Mind: If you want to do a very accurate calculations keep the          |
|      reciprocal projection scheme          (i.e. LREAL=.FALSE.)             |
|                                                                             |
 ----------------------------------------------------------------------------- 

 LDA part: xc-table for Pade appr. of Perdew
 POSCAR, INCAR and KPOINTS ok, starting setup
 FFT: planning ...(           1 )
 reading WAVECAR
 entering main loop
       N       E                     dE             d eps       ncg     rms          rms(c)
RMM:   1     0.295066244139E+03    0.29507E+03   -0.16908E+04   124   0.643E+02
RMM:   2    -0.150227736141E+02   -0.31009E+03   -0.30435E+03   124   0.136E+02
RMM:   3    -0.863562089588E+02   -0.71333E+02   -0.74133E+02   124   0.458E+01
RMM:   4    -0.102676007460E+03   -0.16320E+02   -0.16729E+02   124   0.263E+01
RMM:   5    -0.109207901664E+03   -0.65319E+01   -0.54205E+01   124   0.143E+01
RMM:   6    -0.111593909963E+03   -0.23860E+01   -0.19820E+01   124   0.823E+00
RMM:   7    -0.112578304730E+03   -0.98439E+00   -0.82487E+00   124   0.500E+00
RMM:   8    -0.113021651892E+03   -0.44335E+00   -0.37828E+00   124   0.314E+00
RMM:   9    -0.113413944840E+03   -0.39229E+00   -0.36427E+00   338   0.206E+00
RMM:  10    -0.113494877443E+03   -0.80933E-01   -0.25426E-01   298   0.462E-01
RMM:  11    -0.113499230015E+03   -0.43526E-02   -0.10544E-02   268   0.105E-01
RMM:  12    -0.113499285921E+03   -0.55906E-04   -0.35756E-04   203   0.296E-02    0.536E+00
RMM:  13    -0.112861329073E+03    0.63796E+00   -0.88935E-01   270   0.140E+00    0.327E+00
RMM:  14    -0.112615574194E+03    0.24575E+00   -0.22989E-01   281   0.976E-01    0.121E+00
RMM:  15    -0.112574739429E+03    0.40835E-01   -0.39061E-02   292   0.475E-01    0.140E-01
RMM:  16    -0.112573876566E+03    0.86286E-03   -0.48167E-03   296   0.136E-01    0.439E-02
RMM:  17    -0.112573882267E+03   -0.57012E-05   -0.60832E-04   251   0.528E-02
   1 F= -.11257388E+03 E0= -.11256096E+03  d E =-.387772E-01
