  31  31   0   0
  0.1706119E+02  0.8087054E-09  0.8087054E-09  0.8087054E-09  0.5000000E-15
  1.000000000000000E-004
  CAR 
 unknown system                          
     12.08883169     -4.95671779  301      7.85322227      1.00000000
     -4.957  0.0000E+00  0.0000E+00
     -4.900  0.0000E+00  0.0000E+00
     -4.843  0.0000E+00  0.0000E+00
     -4.786  0.0000E+00  0.0000E+00
     -4.729  0.0000E+00  0.0000E+00
     -4.673  0.0000E+00  0.0000E+00
     -4.616  0.0000E+00  0.0000E+00
     -4.559 -0.9550E-26 -0.5426E-27
     -4.502 -0.7990E-24 -0.4594E-25
     -4.445 -0.5737E-22 -0.3306E-23
     -4.389 -0.3499E-20 -0.2021E-21
     -4.332 -0.1812E-18 -0.1050E-19
     -4.275 -0.7969E-17 -0.4633E-18
     -4.218 -0.2975E-15 -0.1736E-16
     -4.161 -0.9422E-14 -0.5527E-15
     -4.104 -0.2454E-12 -0.1449E-13
     -4.048 -0.5577E-11 -0.3314E-12
     -3.991 -0.1073E-09 -0.6427E-11
     -3.934 -0.1747E-08 -0.1057E-09
     -3.877 -0.2406E-07 -0.1473E-08
     -3.820 -0.2799E-06 -0.1738E-07
     -3.764 -0.2747E-05 -0.1735E-06
     -3.707 -0.2270E-04 -0.1464E-05
     -3.650 -0.1577E-03 -0.1042E-04
     -3.593 -0.9168E-03 -0.6251E-04
     -3.536 -0.4444E-02 -0.3150E-03
     -3.479 -0.1783E-01 -0.1328E-02
     -3.423 -0.5859E-01 -0.4657E-02
     -3.366 -0.1546E+00 -0.1344E-01
     -3.309 -0.3151E+00 -0.3134E-01
     -3.252 -0.4459E+00 -0.5668E-01
     -3.195 -0.2469E+00 -0.7071E-01
     -3.139  0.7485E+00 -0.2818E-01
     -3.082  0.2823E+01  0.1322E+00
     -3.025  0.5569E+01  0.4486E+00
     -2.968  0.7803E+01  0.8920E+00
     -2.911  0.8285E+01  0.1363E+01
     -2.854  0.6724E+01  0.1745E+01
     -2.798  0.4034E+01  0.1974E+01
     -2.741  0.1553E+01  0.2062E+01
     -2.684  0.7543E-01  0.2066E+01
     -2.627 -0.4236E+00  0.2042E+01
     -2.570 -0.3907E+00  0.2020E+01
     -2.514 -0.2245E+00  0.2007E+01
     -2.457 -0.1092E+00  0.2001E+01
     -2.400 -0.8776E-01  0.1996E+01
     -2.343 -0.1728E+00  0.1986E+01
     -2.286 -0.3830E+00  0.1965E+01
     -2.229 -0.6698E+00  0.1927E+01
     -2.173 -0.7543E+00  0.1884E+01
     -2.116 -0.2131E-01  0.1883E+01
     -2.059  0.2256E+01  0.2011E+01
     -2.002  0.6281E+01  0.2368E+01
     -1.945  0.1116E+02  0.3002E+01
     -1.889  0.1519E+02  0.3865E+01
     -1.832  0.1694E+02  0.4827E+01
     -1.775  0.1627E+02  0.5752E+01
     -1.718  0.1402E+02  0.6548E+01
     -1.661  0.1112E+02  0.7180E+01
     -1.604  0.8012E+01  0.7635E+01
     -1.548  0.4945E+01  0.7916E+01
     -1.491  0.2316E+01  0.8048E+01
     -1.434  0.5356E+00  0.8078E+01
     -1.377 -0.3073E+00  0.8061E+01
     -1.320 -0.4897E+00  0.8033E+01
     -1.264 -0.4150E+00  0.8010E+01
     -1.207 -0.3833E+00  0.7988E+01
     -1.150 -0.5131E+00  0.7959E+01
     -1.093 -0.7062E+00  0.7919E+01
     -1.036 -0.5683E+00  0.7886E+01
     -0.979  0.5742E+00  0.7919E+01
     -0.923  0.3303E+01  0.8107E+01
     -0.866  0.7445E+01  0.8530E+01
     -0.809  0.1173E+02  0.9196E+01
     -0.752  0.1441E+02  0.1001E+02
     -0.695  0.1450E+02  0.1084E+02
     -0.639  0.1253E+02  0.1155E+02
     -0.582  0.9992E+01  0.1212E+02
     -0.525  0.8119E+01  0.1258E+02
     -0.468  0.7139E+01  0.1299E+02
     -0.411  0.6466E+01  0.1335E+02
     -0.354  0.5436E+01  0.1366E+02
     -0.298  0.3874E+01  0.1388E+02
     -0.241  0.2127E+01  0.1400E+02
     -0.184  0.6880E+00  0.1404E+02
     -0.127 -0.2128E+00  0.1403E+02
     -0.070 -0.6959E+00  0.1399E+02
     -0.014 -0.9807E+00  0.1393E+02
      0.043 -0.1007E+01  0.1388E+02
      0.100 -0.2306E+00  0.1386E+02
      0.157  0.2150E+01  0.1399E+02
      0.214  0.6501E+01  0.1436E+02
      0.271  0.1206E+02  0.1504E+02
      0.327  0.1706E+02  0.1601E+02
      0.384  0.1971E+02  0.1713E+02
      0.441  0.1948E+02  0.1824E+02
      0.498  0.1724E+02  0.1922E+02
      0.555  0.1443E+02  0.2004E+02
      0.611  0.1191E+02  0.2071E+02
      0.668  0.9635E+01  0.2126E+02
      0.725  0.7196E+01  0.2167E+02
      0.782  0.4536E+01  0.2193E+02
      0.839  0.2099E+01  0.2205E+02
      0.896  0.3738E+00  0.2207E+02
      0.952 -0.5629E+00  0.2204E+02
      1.009 -0.1030E+01  0.2198E+02
      1.066 -0.1339E+01  0.2190E+02
      1.123 -0.1331E+01  0.2183E+02
      1.180 -0.1756E+00  0.2182E+02
      1.236  0.3295E+01  0.2200E+02
      1.293  0.9629E+01  0.2255E+02
      1.350  0.1773E+02  0.2356E+02
      1.407  0.2483E+02  0.2497E+02
      1.464  0.2800E+02  0.2656E+02
      1.521  0.2618E+02  0.2805E+02
      1.577  0.2099E+02  0.2924E+02
      1.634  0.1546E+02  0.3012E+02
      1.691  0.1184E+02  0.3079E+02
      1.748  0.1045E+02  0.3138E+02
      1.805  0.1023E+02  0.3196E+02
      1.862  0.1003E+02  0.3254E+02
      1.918  0.9236E+01  0.3306E+02
      1.975  0.7666E+01  0.3350E+02
      2.032  0.5480E+01  0.3381E+02
      2.089  0.3132E+01  0.3398E+02
      2.146  0.1186E+01  0.3405E+02
      2.202 -0.4741E-01  0.3405E+02
      2.259 -0.6665E+00  0.3401E+02
      2.316 -0.9793E+00  0.3396E+02
      2.373 -0.1099E+01  0.3389E+02
      2.430 -0.6403E+00  0.3386E+02
      2.487  0.1209E+01  0.3393E+02
      2.543  0.5104E+01  0.3422E+02
      2.600  0.1072E+02  0.3482E+02
      2.657  0.1641E+02  0.3576E+02
      2.714  0.1997E+02  0.3689E+02
      2.771  0.1995E+02  0.3803E+02
      2.827  0.1657E+02  0.3897E+02
      2.884  0.1136E+02  0.3961E+02
      2.941  0.6188E+01  0.3996E+02
      2.998  0.2328E+01  0.4010E+02
      3.055  0.1451E+00  0.4010E+02
      3.112 -0.7367E+00  0.4006E+02
      3.168 -0.9921E+00  0.4001E+02
      3.225 -0.1171E+01  0.3994E+02
      3.282 -0.1396E+01  0.3986E+02
      3.339 -0.1174E+01  0.3979E+02
      3.396  0.5753E+00  0.3983E+02
      3.452  0.5060E+01  0.4011E+02
      3.509  0.1267E+02  0.4083E+02
      3.566  0.2208E+02  0.4209E+02
      3.623  0.3029E+02  0.4381E+02
      3.680  0.3396E+02  0.4574E+02
      3.737  0.3149E+02  0.4753E+02
      3.793  0.2422E+02  0.4891E+02
      3.850  0.1576E+02  0.4980E+02
      3.907  0.9642E+01  0.5035E+02
      3.964  0.7135E+01  0.5075E+02
      4.021  0.6908E+01  0.5115E+02
      4.077  0.6671E+01  0.5153E+02
      4.134  0.5136E+01  0.5182E+02
      4.191  0.2606E+01  0.5197E+02
      4.248  0.1522E+00  0.5197E+02
      4.305 -0.1302E+01  0.5190E+02
      4.362 -0.1102E+01  0.5184E+02
      4.418  0.1415E+01  0.5192E+02
      4.475  0.6720E+01  0.5230E+02
      4.532  0.1437E+02  0.5312E+02
      4.589  0.2260E+02  0.5440E+02
      4.646  0.2905E+02  0.5605E+02
      4.702  0.3213E+02  0.5788E+02
      4.759  0.3194E+02  0.5969E+02
      4.816  0.2991E+02  0.6139E+02
      4.873  0.2747E+02  0.6295E+02
      4.930  0.2511E+02  0.6438E+02
      4.987  0.2255E+02  0.6566E+02
      5.043  0.1961E+02  0.6677E+02
      5.100  0.1657E+02  0.6771E+02
      5.157  0.1374E+02  0.6850E+02
      5.214  0.1107E+02  0.6912E+02
      5.271  0.8208E+01  0.6959E+02
      5.327  0.5109E+01  0.6988E+02
      5.384  0.2193E+01  0.7001E+02
      5.441  0.1109E+00  0.7001E+02
      5.498 -0.6128E+00  0.6998E+02
      5.555  0.3072E+00  0.6999E+02
      5.612  0.2830E+01  0.7015E+02
      5.668  0.6371E+01  0.7052E+02
      5.725  0.9770E+01  0.7107E+02
      5.782  0.1181E+02  0.7174E+02
      5.839  0.1190E+02  0.7242E+02
      5.896  0.1033E+02  0.7301E+02
      5.952  0.7822E+01  0.7345E+02
      6.009  0.5156E+01  0.7374E+02
      6.066  0.3122E+01  0.7392E+02
      6.123  0.2454E+01  0.7406E+02
      6.180  0.3438E+01  0.7426E+02
      6.237  0.5455E+01  0.7457E+02
      6.293  0.7130E+01  0.7497E+02
      6.350  0.7173E+01  0.7538E+02
      6.407  0.5307E+01  0.7568E+02
      6.464  0.2528E+01  0.7582E+02
      6.521  0.6217E+00  0.7586E+02
      6.577  0.1327E+01  0.7593E+02
      6.634  0.5423E+01  0.7624E+02
      6.691  0.1200E+02  0.7692E+02
      6.748  0.1865E+02  0.7798E+02
      6.805  0.2313E+02  0.7930E+02
      6.862  0.2523E+02  0.8073E+02
      6.918  0.2671E+02  0.8225E+02
      6.975  0.2889E+02  0.8389E+02
      7.032  0.3077E+02  0.8564E+02
      7.089  0.2977E+02  0.8733E+02
      7.146  0.2447E+02  0.8872E+02
      7.202  0.1620E+02  0.8964E+02
      7.259  0.7930E+01  0.9009E+02
      7.316  0.2089E+01  0.9021E+02
      7.373 -0.7738E+00  0.9017E+02
      7.430 -0.1582E+01  0.9008E+02
      7.487 -0.1584E+01  0.8999E+02
      7.543 -0.1467E+01  0.8990E+02
      7.600 -0.1058E+01  0.8984E+02
      7.657  0.4708E+00  0.8987E+02
      7.714  0.3954E+01  0.9009E+02
      7.771  0.9364E+01  0.9063E+02
      7.827  0.1542E+02  0.9150E+02
      7.884  0.2036E+02  0.9266E+02
      7.941  0.2340E+02  0.9399E+02
      7.998  0.2546E+02  0.9544E+02
      8.055  0.2816E+02  0.9704E+02
      8.112  0.3198E+02  0.9885E+02
      8.168  0.3543E+02  0.1009E+03
      8.225  0.3611E+02  0.1029E+03
      8.282  0.3268E+02  0.1048E+03
      8.339  0.2578E+02  0.1062E+03
      8.396  0.1752E+02  0.1072E+03
      8.452  0.1003E+02  0.1078E+03
      8.509  0.4532E+01  0.1081E+03
      8.566  0.1213E+01  0.1081E+03
      8.623 -0.3772E+00  0.1081E+03
      8.680 -0.9239E+00  0.1081E+03
      8.737 -0.1073E+01  0.1080E+03
      8.793 -0.1211E+01  0.1079E+03
      8.850 -0.1237E+01  0.1079E+03
      8.907 -0.4469E+00  0.1078E+03
      8.964  0.2185E+01  0.1080E+03
      9.021  0.7131E+01  0.1084E+03
      9.077  0.1340E+02  0.1091E+03
      9.134  0.1876E+02  0.1102E+03
      9.191  0.2153E+02  0.1114E+03
      9.248  0.2220E+02  0.1127E+03
      9.305  0.2282E+02  0.1140E+03
      9.362  0.2447E+02  0.1154E+03
      9.418  0.2573E+02  0.1168E+03
      9.475  0.2408E+02  0.1182E+03
      9.532  0.1863E+02  0.1192E+03
      9.589  0.1107E+02  0.1199E+03
      9.646  0.4181E+01  0.1201E+03
      9.702 -0.2043E+00  0.1201E+03
      9.759 -0.1757E+01  0.1200E+03
      9.816 -0.7892E+00  0.1200E+03
      9.873  0.2455E+01  0.1201E+03
      9.930  0.7445E+01  0.1205E+03
      9.987  0.1264E+02  0.1212E+03
     10.043  0.1575E+02  0.1221E+03
     10.100  0.1517E+02  0.1230E+03
     10.157  0.1131E+02  0.1236E+03
     10.214  0.6250E+01  0.1240E+03
     10.271  0.2136E+01  0.1241E+03
     10.327 -0.9262E-01  0.1241E+03
     10.384 -0.7521E+00  0.1241E+03
     10.441 -0.6366E+00  0.1240E+03
     10.498 -0.3527E+00  0.1240E+03
     10.555 -0.1494E+00  0.1240E+03
     10.612 -0.5088E-01  0.1240E+03
     10.668 -0.1425E-01  0.1240E+03
     10.725 -0.3322E-02  0.1240E+03
     10.782 -0.6489E-03  0.1240E+03
     10.839 -0.1067E-03  0.1240E+03
     10.896 -0.1481E-04  0.1240E+03
     10.952 -0.1739E-05  0.1240E+03
     11.009 -0.1729E-06  0.1240E+03
     11.066 -0.1456E-07  0.1240E+03
     11.123 -0.1040E-08  0.1240E+03
     11.180 -0.6306E-10  0.1240E+03
     11.237 -0.3251E-11  0.1240E+03
     11.293 -0.1407E-12  0.1240E+03
     11.350 -0.3908E-14  0.1240E+03
     11.407  0.0000E+00  0.1240E+03
     11.464  0.0000E+00  0.1240E+03
     11.521  0.0000E+00  0.1240E+03
     11.577  0.0000E+00  0.1240E+03
     11.634  0.0000E+00  0.1240E+03
     11.691  0.0000E+00  0.1240E+03
     11.748  0.0000E+00  0.1240E+03
     11.805  0.0000E+00  0.1240E+03
     11.862  0.0000E+00  0.1240E+03
     11.918  0.0000E+00  0.1240E+03
     11.975  0.0000E+00  0.1240E+03
     12.032  0.0000E+00  0.1240E+03
     12.089  0.0000E+00  0.1240E+03
