   31   31    1    1
  0.1706119E+02  0.8087054E-09  0.8087054E-09  0.8087054E-09  0.5000000E-15
  1.000000000000000E-004
  CAR 
 unknown system                          
   92    2   62
 
  0.2500000E+00  0.2500000E+00  0.2500000E+00  0.5000000E+00
   1       -2.953841
   2       -1.923487
   3       -1.872980
   4       -1.639632
   5       -0.802381
   6       -0.748918
   7       -0.384205
   8        0.293822
   9        0.332453
  10        0.504106
  11        0.613140
  12        1.347828
  13        1.401584
  14        1.419812
  15        1.553594
  16        1.729523
  17        1.966838
  18        2.662517
  19        2.678299
  20        2.849579
  21        3.542287
  22        3.613300
  23        3.660099
  24        3.713627
  25        3.751657
  26        4.038022
  27        4.541523
  28        4.595495
  29        4.634928
  30        4.756359
  31        4.813169
  32        4.884161
  33        4.934510
  34        5.057595
  35        5.241121
  36        5.719028
  37        5.833368
  38        6.334402
  39        6.737303
  40        6.763096
  41        6.796711
  42        6.970747
  43        7.013726
  44        7.072280
  45        7.114831
  46        7.814689
  47        7.846253
  48        7.940439
  49        8.080024
  50        8.165034
  51        8.229203
  52        8.257399
  53        8.330049
  54        8.417091
  55        9.091515
  56        9.154499
  57        9.165007
  58        9.394996
  59        9.416625
  60        9.479000
  61       10.004767
  62       10.088832
 
 -0.2500000E+00  0.2500000E+00  0.2500000E+00  0.5000000E+00
   1       -2.956718
   2       -1.916546
   3       -1.816348
   4       -1.706943
   5       -0.800708
   6       -0.666600
   7       -0.520170
   8        0.299317
   9        0.399490
  10        0.433901
  11        0.685275
  12        1.376122
  13        1.460390
  14        1.473053
  15        1.506060
  16        1.726820
  17        1.871789
  18        2.630807
  19        2.735858
  20        2.773259
  21        3.552860
  22        3.625599
  23        3.653919
  24        3.688533
  25        3.764835
  26        4.006603
  27        4.571336
  28        4.653970
  29        4.676059
  30        4.724065
  31        4.743375
  32        4.915527
  33        4.934582
  34        5.055827
  35        5.180288
  36        5.732160
  37        5.952129
  38        6.262057
  39        6.755951
  40        6.776185
  41        6.881088
  42        7.005078
  43        7.022865
  44        7.058781
  45        7.135314
  46        7.846417
  47        7.912387
  48        7.979071
  49        8.068854
  50        8.128506
  51        8.137545
  52        8.181445
  53        8.227121
  54        8.276353
  55        9.134938
  56        9.158521
  57        9.303481
  58        9.402070
  59        9.398345
  60        9.482450
  61       10.011409
  62       10.036685
