 vasp.5.2.2 15Apr09 complex 
 executed on             LinuxIFC date 2014.04.24  10:17:35
 running on    1 nodes
 distr:  one band on    1 nodes,    1 groups


--------------------------------------------------------------------------------------------------------


 INCAR:
 POTCAR:   PAW_PBE Mg 05Jan2001                   
 POTCAR:   PAW_PBE Al 04Jan2001                   
 POTCAR:   PAW_PBE Mg 05Jan2001                   
   VRHFIN =Mg: s2p0                                                             
   LEXCH  = PE                                                                  
   EATOM  =    23.0029 eV,    1.6907 Ry                                         
                                                                                
   TITEL  = PAW_PBE Mg 05Jan2001                                                
   LULTRA =        F    use ultrasoft PP ?                                      
   IUNSCR =        1    unscreen: 0-lin 1-nonlin 2-no                           
   RPACOR =    2.000    partial core radius                                     
   POMASS =   24.305; ZVAL   =    2.000    mass and valenz                      
   RCORE  =    2.000    outmost cutoff radius                                   
   RWIGS  =    2.880; RWIGS  =    1.524    wigner-seitz radius (au A)           
   ENMAX  =  210.012; ENMIN  =  157.509 eV                                      
   ICORE  =        2    local potential                                         
   LCOR   =        T    correct aug charges                                     
   LPAW   =        T    paw PP                                                  
   EAUG   =  274.554                                                            
   DEXC   =    -.136                                                            
   RMAX   =    3.182    core radius for proj-oper                               
   RAUG   =    1.300    factor for augmentation sphere                          
   RDEP   =    2.025    radius for radial grids                                 
   QCUT   =   -3.929; QGAM   =    7.858    optimization parameters              
                                                                                
   Description                                                                  
     l     E      TYP  RCUT    TYP  RCUT                                        
     0   .000     23  2.000                                                     
     0  2.000     23  2.000                                                     
     1   .000     23  2.000                                                     
     1  2.000     23  2.000                                                     
     2   .000     23  2.000                                                     
  local pseudopotential read in
  partial core-charges read in
  atomic valenz-charges read in
  non local Contribution for L=           0  read in
    real space projection operators read in
  non local Contribution for L=           0  read in
    real space projection operators read in
  non local Contribution for L=           1  read in
    real space projection operators read in
  non local Contribution for L=           1  read in
    real space projection operators read in
    PAW grid and wavefunctions read in
 
   number of l-projection  operators is LMAX  =           4
   number of lm-projection operators is LMMAX =           8
 
 POTCAR:   PAW_PBE Al 04Jan2001                   
   VRHFIN =Al: s2p1                                                             
   LEXCH  = PE                                                                  
   EATOM  =    53.5387 eV,    3.9350 Ry                                         
                                                                                
   TITEL  = PAW_PBE Al 04Jan2001                                                
   LULTRA =        F    use ultrasoft PP ?                                      
   IUNSCR =        1    unscreen: 0-lin 1-nonlin 2-no                           
   RPACOR =    1.500    partial core radius                                     
   POMASS =   26.982; ZVAL   =    3.000    mass and valenz                      
   RCORE  =    1.900    outmost cutoff radius                                   
   RWIGS  =    2.650; RWIGS  =    1.402    wigner-seitz radius (au A)           
   ENMAX  =  240.300; ENMIN  =  180.225 eV                                      
   ICORE  =        2    local potential                                         
   LCOR   =        T    correct aug charges                                     
   LPAW   =        T    paw PP                                                  
   EAUG   =  291.052                                                            
   DEXC   =    -.041                                                            
   RMAX   =    2.974    core radius for proj-oper                               
   RAUG   =    1.300    factor for augmentation sphere                          
   RDEP   =    1.966    radius for radial grids                                 
   QCUT   =   -4.203; QGAM   =    8.405    optimization parameters              
                                                                                
   Description                                                                  
     l     E      TYP  RCUT    TYP  RCUT                                        
     0   .000     23  1.900                                                     
     0   .000     23  1.900                                                     
     1   .000     23  1.900                                                     
     1  1.000     23  1.900                                                     
     2   .000      7  1.900                                                     
  local pseudopotential read in
  partial core-charges read in
  atomic valenz-charges read in
  non local Contribution for L=           0  read in
    real space projection operators read in
  non local Contribution for L=           0  read in
    real space projection operators read in
  non local Contribution for L=           1  read in
    real space projection operators read in
  non local Contribution for L=           1  read in
    real space projection operators read in
    PAW grid and wavefunctions read in
 
   number of l-projection  operators is LMAX  =           4
   number of lm-projection operators is LMMAX =           8
 

 ----------------------------------------------------------------------------- 
|                                                                             |
|  ADVICE TO THIS USER RUNNING 'VASP/VAMP'   (HEAR YOUR MASTER'S VOICE ...):  |
|                                                                             |
|      You have a (more or less) 'large supercell' and for larger cells       |
|      it might be more efficient to use real space projection operators      |
|      So try LREAL= Auto  in the INCAR   file.                               |
|      Mind: If you want to do a very accurate calculations keep the          |
|      reciprocal projection scheme          (i.e. LREAL=.FALSE.)             |
|                                                                             |
 ----------------------------------------------------------------------------- 

 PAW_PBE Mg 05Jan2001                   :
 energy of atom  1       EATOM=  -23.0029
 kinetic energy error for atom=    0.0002 (will be added to EATOM!!)
 PAW_PBE Al 04Jan2001                   :
 energy of atom  2       EATOM=  -53.5387
 kinetic energy error for atom=    0.0011 (will be added to EATOM!!)
 
 
 POSCAR: Mg1 Al30                                
  positions in direct lattice
  velocities in cartesian coordinates
 exchange correlation table for  LEXCH =        8
   RHO(1)=    0.500       N(1)  =     2000
   RHO(2)=  100.500       N(2)  =     4000

 VTST: version 2.03d, (02/18/09)

 CHAIN: initializing optimizer
 
 OPT: Using VASP Dynamics algorithm
 CHAIN: Read ICHAIN            0
 


--------------------------------------------------------------------------------------------------------


 ion  position               nearest neighbor table
   1  0.261  0.500  0.261-   9 2.84  16 2.84  19 2.84  27 2.84  25 2.89  13 2.89   4 2.92  11 2.92
                            12 2.92   5 2.92  10 2.99
   2  1.000  0.000  1.000-   7 2.84  18 2.84  15 2.84   8 2.84  20 2.84  28 2.84  22 2.84   3 2.84
                             5 2.86  11 2.86  12 2.86   4 2.86
   3  0.248  0.000  0.248-   2 2.84   4 2.85   5 2.85  11 2.85  12 2.85   6 2.88  17 2.88  16 2.88
                             9 2.88  19 2.88  27 2.88  21 2.89
   4  0.250  0.250  0.000-  18 2.84   3 2.85   6 2.86  20 2.86   5 2.86   2 2.86  10 2.87  13 2.88
                            26 2.88   9 2.88  24 2.88   1 2.92
   5  0.000  0.250  0.250-   7 2.84   3 2.85  17 2.86   8 2.86   4 2.86   2 2.86  10 2.87  25 2.88
                            14 2.88  19 2.88  23 2.88   1 2.92
   6  0.500  0.000  0.996-  18 2.82  22 2.84   4 2.86  11 2.86   9 2.87  16 2.87  15 2.87   8 2.87
                             3 2.88  24 2.89  31 2.89   7 2.90
   7  0.753  0.000  0.250-  17 2.82  16 2.84   9 2.84   2 2.84   5 2.84  12 2.84   8 2.86  15 2.86
                            23 2.88  30 2.88  21 2.88   6 2.90
   8  0.752  0.249  0.999-  20 2.82   2 2.84  22 2.84  10 2.85   9 2.85   5 2.86   7 2.86  13 2.86
                             6 2.87  14 2.88  29 2.88  24 2.91
   9  0.505  0.248  0.250-  23 2.80  14 2.83   7 2.84   1 2.84   8 2.85  21 2.85   6 2.87   3 2.88
                             4 2.88  13 2.89  19 2.91
  10  0.999  0.500  0.999-   8 2.85  15 2.85  20 2.85  28 2.85  12 2.87   5 2.87   4 2.87  11 2.87
                            26 2.88  14 2.88  29 2.90   1 2.99
  11  0.250  0.750  0.000-  18 2.84   3 2.85   6 2.86  28 2.86  12 2.86   2 2.86  10 2.87  13 2.88
                            26 2.88  16 2.88  31 2.88   1 2.92
  12  0.000  0.750  0.250-   7 2.84   3 2.85  17 2.86  15 2.86  11 2.86   2 2.86  10 2.87  25 2.88
                            14 2.88  27 2.88  30 2.88   1 2.92
  13  0.502  0.500  0.997-  29 2.83  14 2.85  24 2.85  31 2.85  15 2.86   8 2.86  26 2.87   4 2.88
                            11 2.88   9 2.89  16 2.89   1 2.89
  14  0.747  0.500  0.251-  23 2.82  30 2.82   9 2.83  16 2.83  13 2.85  25 2.87   8 2.88  15 2.88
                             5 2.88  12 2.88  10 2.88
  15  0.752  0.751  0.999-  28 2.82   2 2.84  22 2.84  10 2.85  16 2.85  12 2.86   7 2.86  13 2.86
                             6 2.87  14 2.88  29 2.88  31 2.91
  16  0.505  0.752  0.250-  30 2.80  14 2.83   7 2.84   1 2.84  15 2.85  21 2.85   6 2.87   3 2.88
                            11 2.88  13 2.89  27 2.91
  17  0.996  0.000  0.500-   7 2.82  22 2.84  12 2.86   5 2.86  19 2.87  27 2.87  20 2.87  28 2.87
                             3 2.88  23 2.89  30 2.89  18 2.90
  18  0.250  0.000  0.753-   6 2.82  19 2.84  27 2.84   2 2.84   4 2.84  11 2.84  20 2.86  28 2.86
                            24 2.88  31 2.88  21 2.88  17 2.90
  19  0.250  0.248  0.505-  24 2.80  26 2.83  18 2.84   1 2.84  20 2.85  21 2.85  17 2.87   3 2.88
                             5 2.88  25 2.89   9 2.91
  20  0.999  0.249  0.752-   8 2.82   2 2.84  22 2.84  10 2.85  19 2.85   4 2.86  18 2.86  25 2.86
                            17 2.87  26 2.88  29 2.88  23 2.91
  21  0.501  0.000  0.501-  23 2.85  24 2.85  30 2.85  31 2.85  16 2.85  27 2.85  19 2.85   9 2.85
                            22 2.86  18 2.88   7 2.88   3 2.89
  22  0.751  0.000  0.751-   6 2.84  17 2.84   2 2.84  15 2.84   8 2.84  20 2.84  28 2.84  21 2.86
                            24 2.90  23 2.90  30 2.90  31 2.90
  23  0.745  0.254  0.498-   9 2.80  24 2.81  29 2.82  14 2.82  21 2.85  25 2.85   7 2.88   5 2.88
                            17 2.89  22 2.90  20 2.91
  24  0.498  0.254  0.745-  19 2.80  23 2.81  29 2.82  26 2.82  21 2.85  13 2.85  18 2.88   4 2.88
                             6 2.89  22 2.90   8 2.91
  25  0.997  0.500  0.502-  29 2.83  26 2.85  23 2.85  30 2.85  20 2.86  28 2.86  14 2.87  12 2.88
                             5 2.88  27 2.89  19 2.89   1 2.89
  26  0.251  0.500  0.747-  24 2.82  31 2.82  27 2.83  19 2.83  25 2.85  13 2.87  28 2.88  20 2.88
                             4 2.88  11 2.88  10 2.88
  27  0.250  0.752  0.505-  31 2.80  26 2.83  18 2.84   1 2.84  28 2.85  21 2.85  17 2.87   3 2.88
                            12 2.88  25 2.89  16 2.91
  28  0.999  0.751  0.752-  15 2.82   2 2.84  22 2.84  10 2.85  27 2.85  11 2.86  18 2.86  25 2.86
                            17 2.87  26 2.88  29 2.88  30 2.91
  29  0.746  0.500  0.746-  23 2.82  24 2.82  30 2.82  31 2.82  13 2.83  25 2.83  20 2.88  28 2.88
                             8 2.88  15 2.88  10 2.90
  30  0.745  0.746  0.498-  16 2.80  31 2.81  29 2.82  14 2.82  21 2.85  25 2.85   7 2.88  12 2.88
                            17 2.89  22 2.90  28 2.91
  31  0.498  0.746  0.745-  27 2.80  30 2.81  29 2.82  26 2.82  21 2.85  13 2.85  18 2.88  11 2.88
                             6 2.89  22 2.90  15 2.91
 
  LATTYP: Found a simple cubic cell.
 ALAT       =     8.0870540000
  
  Lattice vectors:
  
 A1 = (   8.0870540000,   0.0000000000,   0.0000000000)
 A2 = (   0.0000000000,   8.0870540000,   0.0000000000)
 A3 = (   0.0000000000,   0.0000000000,   8.0870540000)
 Subroutine PRICEL returns:
 Original cell was already a primitive cell.
 

Analysis of symmetry for initial positions (statically):

 Routine SETGRP: Setting up the symmetry group for a 
 simple cubic supercell.


 Subroutine GETGRP returns: Found  4 space group operations
 (whereof  4 operations were pure point group operations)
 out of a pool of 48 trial point group operations.


The static configuration has the point symmetry C_2v.

Analysis of symmetry for dynamics (positions and initial velocities):

 Subroutine DYNSYM returns: Found  4 space group operations
 (whereof  4 operations were pure point group operations)
 out of a pool of  4 trial space group operations
 (whereof  4 operations were pure point group operations)
 and found also     1 'primitive' translations


The dynamic configuration has the point symmetry C_2v.
 
 
 KPOINTS: Automatic kpoint scheme                 

Automatic generation of k-mesh.
 
 Subroutine IBZKPT returns following result:
 ===========================================
 
 Found      2 irreducible k-points:
 
 Following reciprocal coordinates:
            Coordinates               Weight
  0.250000  0.250000  0.250000      4.000000
 -0.250000  0.250000  0.250000      4.000000
 
 Following cartesian coordinates:
            Coordinates               Weight
  0.030914  0.030914  0.030914      4.000000
 -0.030914  0.030914  0.030914      4.000000
 


--------------------------------------------------------------------------------------------------------




 Dimension of arrays:
   k-points           NKPTS =      2   k-points in BZ     NKDIM =      2   number of bands    NBANDS=     62
   number of dos      NEDOS =    301   number of ions     NIONS =     31
   non local maximal  LDIM  =      4   non local SUM 2l+1 LMDIM =      8
   total plane-waves  NPLWV = 110592
   max r-space proj   IRMAX =      1   max aug-charges    IRDMAX=   9081
   dimension x,y,z NGX =    48 NGY =   48 NGZ =   48
   dimension x,y,z NGXF=    96 NGYF=   96 NGZF=   96
   support grid    NGXF=    96 NGYF=   96 NGZF=   96
   ions per type =               1  30
 NGX,Y,Z   is equivalent  to a cutoff of   9.87,  9.87,  9.87 a.u.
 NGXF,Y,Z  is equivalent  to a cutoff of  19.73, 19.73, 19.73 a.u.


 I would recommend the setting:
   dimension x,y,z NGX =    46 NGY =   46 NGZ =   46
 SYSTEM =  unknown system                          
 POSCAR =  Mg1 Al30                                

 Startparameter for this run:
   NWRITE =      2    write-flag & timer
   PREC   = accura    medium, high low
   ISTART =      0    job   : 0-new  1-cont  2-samecut
   ICHARG =      2    charge: 1-file 2-atom 10-const
   ISPIN  =      1    spin polarized calculation?
   LNONCOLLINEAR =      F non collinear calculations
   LSORBIT =      F    spin-orbit coupling
   INIWAV =      1    electr: 0-lowe 1-rand  2-diag
   LASPH  =      F    aspherical Exc in radial PAW
   METAGGA=      F    non-selfconsistent MetaGGA calc.

 Electronic Relaxation 1
   ENCUT  =  300.0 eV  22.05 Ry    4.70 a.u.  11.42 11.42 11.42*2*pi/ulx,y,z
   ENINI  =  300.0     initial cutoff
   ENAUG  =  291.1 eV  augmentation charge cutoff
   NELM   =     60;   NELMIN=  2; NELMDL=-12     # of ELM steps 
   EDIFF  = 0.1E-03   stopping-criterion for ELM
   LREAL  =      F    real-space projection
   LCOMPAT=      F    compatible to vasp.4.4
   LREAL_COMPAT= F    compatible to vasp.4.5.1-3
   GGA_COMPAT  = T    GGA compatible to vasp.4.4-vasp.4.6
   LMAXPAW     = -100 max onsite density
   LMAXMIX     =    2 max onsite mixed and CHGCAR
   VOSKOWN=      0    Vosko Wilk Nusair interpolation
   ROPT   =    0.00000   0.00000
 Ionic relaxation
   EDIFFG = 0.5E-01   stopping-criterion for IOM
   NSW    =      0    number of steps for IOM
   NBLOCK =      1;   KBLOCK =      1    inner block; outer block 
   IBRION =     -1    ionic relax: 0-MD 1-quasi-New 2-CG
   NFREE  =      0    steps in history (QN), initial steepest desc. (CG)
   ISIF   =      2    stress and relaxation
   IWAVPR =     10    prediction:  0-non 1-charg 2-wave 3-comb
   ISYM   =      2    0-nonsym 1-usesym 2-fastsym
   LCORR  =      T    Harris-Foulkes like correction to forces

   POTIM  = 0.5000    time-step for ionic-motion
   TEIN   =    0.0    initial temperature
   TEBEG  =    0.0;   TEEND  =   0.0 temperature during run
   SMASS  =  -3.00    Nose mass-parameter (am)
   estimated Nose-frequenzy (Omega)   =  0.10E-29 period in steps =****** mass=  -0.149E-26a.u.
   NPACO  =    256;   APACO  = 16.0  distance and # of slots for P.C.
   PSTRESS=    0.0 pullay stress

  Mass of Ions in am
   POMASS =  24.30 26.98
  Ionic Valenz
   ZVAL   =   2.00  3.00
  Atomic Wigner-Seitz radii
   RWIGS  =  -1.00 -1.00
   NELECT =      92.0000    total number of electrons
   NUPDOWN=      -1.0000    fix difference up-down

 DOS related values:
   EMIN   =  10.00;   EMAX   =-10.00  energy-range for DOS
   EFERMI =   0.00
   ISMEAR =     1;   SIGMA  =   0.20  broadening in eV -4-tet -1-fermi 0-gaus

 Electronic relaxation 2 (details)
   IALGO  =     48    algorithm
   LDIAG  =      T    sub-space diagonalisation
   IMIX   =      4    mixing-type and parameters
     AMIX     =   0.40;   BMIX     =  1.00
     AMIX_MAG =   1.60;   BMIX_MAG =  1.00
     AMIN     =   0.10
     WC   =   100.;   INIMIX=   1;  MIXPRE=   1

 Intra band minimization:
   WEIMIN = 0.0000     energy-eigenvalue tresh-hold
   EBREAK =  0.40E-06  absolut break condition
   DEPER  =   0.30     relativ break condition  

   TIME   =   0.40     timestep for ELM

  volume/ion in A,a.u.               =      17.06       115.13
  Fermi-wavevector in a.u.,A,eV,Ry     =   0.913862  1.726948 11.362811  0.835143
  Thomas-Fermi vector in A             =   2.038422
 
 Write flags
   LWAVE  =      F    write WAVECAR
   LCHARG =      F    write CHGCAR
   LVTOT  =      F    write LOCPOT, local potential
   LELF   =      F    write electronic localiz. function (ELF)
   LORBIT =      0    0 simple, 1 ext, 2 COOP (PROOUT)


 Dipole corrections
   LMONO  =      F    monopole corrections only (constant potential shift)
   LDIPOL =      F    correct potential (dipole corrections)
   IDIPOL =      0    1-x, 2-y, 3-z, 4-all directions 
   EPSILON=  1.0000000 bulk dielectric constant

 Exchange correlation treatment:
   GGA     =    --    GGA type
   LEXCH   =     8    internal setting for exchange type
   VOSKOWN=      0    Vosko Wilk Nusair interpolation
   LHFCALC =     F    Hartree Fock is set to
   LHFONE  =     F    Hartree Fock one center treatment
   AEXX    =    0.0000 exact exchange contribution

 Linear response parameters
   LEPSILON=     F    determine dielectric tensor
   LRPA    =     F    only Hartree local field effects (RPA)
   LNABLA  =     F    use nabla operator in PAW spheres
   LVEL    =     F    velocity operator in full k-point grid
   LINTERFAST=   F  fast interpolation
   KINTER  =     0    interpolate to denser k-point grid
   CSHIFT  =0.1000    complex shift for real part using Kramers Kronig
   OMEGAMAX=  -1.0    maximum frequency

 Orbital magnetization related:
   ORBITALMAG=     F  switch on orbital magnetization
   LCHIMAG   =     F  perturbation theory with respect to B field



--------------------------------------------------------------------------------------------------------


 Static calculation
 charge density and potential will be updated during run
 non-spin polarized calculation
 RMM-DIIS sequential band-by-band
 perform sub-space diagonalisation
    before iterative eigenvector-optimisation
 modified Broyden-mixing scheme, WC =      100.0
 initial mixing is a Kerker type mixing with AMIX =  0.4000 and BMIX =      1.0000
 Hartree-type preconditioning will be used
 using additional bands           16
 reciprocal scheme for non local part
 use partial core corrections
 calculate Harris-corrections to forces 
   (improved forces if not selfconsistent)
 use gradient corrections 
 use of overlap-Matrix (Vanderbilt PP)
 Methfessel and Paxton  Order N= 1 SIGMA  =   0.20


--------------------------------------------------------------------------------------------------------


  energy-cutoff  :      300.00
  volume of cell :      528.90
      direct lattice vectors                 reciprocal lattice vectors
     8.087054000  0.000000000  0.000000000     0.123654423  0.000000000  0.000000000
     0.000000000  8.087054000  0.000000000     0.000000000  0.123654423  0.000000000
     0.000000000  0.000000000  8.087054000     0.000000000  0.000000000  0.123654423

  length of vectors
     8.087054000  8.087054000  8.087054000     0.123654423  0.123654423  0.123654423


 
 k-points in units of 2pi/SCALE and weight: Automatic kpoint scheme                 
   0.03091361  0.03091361  0.03091361       0.500
  -0.03091361  0.03091361  0.03091361       0.500
 
 k-points in reciprocal lattice and weights: Automatic kpoint scheme                 
   0.25000000  0.25000000  0.25000000       0.500
  -0.25000000  0.25000000  0.25000000       0.500
 
 position of ions in fractional coordinates (direct lattice) 
   0.26079600  0.50000000  0.26079600
   0.99958400  0.00000000  0.99958400
   0.24824600  0.00000000  0.24824600
   0.25003700  0.24965500  0.00037800
   0.00037800  0.24965500  0.25003700
   0.49963300  0.00000000  0.99616600
   0.75336500  0.00000000  0.24989300
   0.75206400  0.24908300  0.99904900
   0.50452900  0.24755100  0.24980800
   0.99910300  0.50000000  0.99910300
   0.25003700  0.75034500  0.00037800
   0.00037800  0.75034500  0.25003700
   0.50244100  0.50000000  0.99743600
   0.74685200  0.50000000  0.25127500
   0.75206400  0.75091700  0.99904900
   0.50452900  0.75244900  0.24980800
   0.99616600  0.00000000  0.49963300
   0.24989300  0.00000000  0.75336500
   0.24980800  0.24755100  0.50452900
   0.99904900  0.24908300  0.75206400
   0.50078400  0.00000000  0.50078400
   0.75104800  0.00000000  0.75104800
   0.74455000  0.25444800  0.49846600
   0.49846600  0.25444800  0.74455000
   0.99743600  0.50000000  0.50244100
   0.25127500  0.50000000  0.74685200
   0.24980800  0.75244900  0.50452900
   0.99904900  0.75091700  0.75206400
   0.74561800  0.50000000  0.74561800
   0.74455000  0.74555200  0.49846600
   0.49846600  0.74555200  0.74455000
 
 position of ions in cartesian coordinates  (Angst):
   2.10907133  4.04352700  2.10907133
   8.08368979  0.00000000  8.08368979
   2.00757881  0.00000000  2.00757881
   2.02206272  2.01897347  0.00305691
   0.00305691  2.01897347  2.02206272
   4.04055905  0.00000000  8.05604823
   6.09250344  0.00000000  2.02089819
   6.08198218  2.01434767  8.07936321
   4.08015327  2.00195830  2.02021079
   8.07979991  4.04352700  8.07979991
   2.02206272  6.06808053  0.00305691
   0.00305691  6.06808053  2.02206272
   4.06326750  4.04352700  8.06631879
   6.03983245  4.04352700  2.03207449
   6.08198218  6.07270633  8.07936321
   4.08015327  6.08509570  2.02021079
   8.05604823  0.00000000  4.04055905
   2.02089819  0.00000000  6.09250344
   2.02021079  2.00195830  4.08015327
   8.07936321  2.01434767  6.08198218
   4.04986725  0.00000000  4.04986725
   6.07376573  0.00000000  6.07376573
   6.02121606  2.05773472  4.03112146
   4.03112146  2.05773472  6.02121606
   8.06631879  4.04352700  4.06326750
   2.03207449  4.04352700  6.03983245
   2.02021079  6.08509570  4.08015327
   8.07936321  6.07270633  6.08198218
   6.02985303  4.04352700  6.02985303
   6.02121606  6.02931928  4.03112146
   4.03112146  6.02931928  6.02121606
 


--------------------------------------------------------------------------------------------------------


 k-point  1 :  0.25000.25000.2500  plane waves:    6238
 k-point  2 :  -.25000.25000.2500  plane waves:    6238

 maximum and minimum number of plane-waves per node :    6238   6238

 maximum number of plane-waves:    6238
 maximal index in each direction: 
   IXMAX= 11   IYMAX= 11   IZMAX= 11
   IXMIN=-11   IYMIN=-11   IZMIN=-11

 NGX is ok and might be reduce to  46
 NGY is ok and might be reduce to  46
 NGZ is ok and might be reduce to  46

 serial   3D FFT for wavefunctions
 parallel 3D FFT for charge:
    minimum data exchange during FFTs selected (reduces bandwidth)


 total amount of memory used by VASP on root node 133132. kBytes
========================================================================

   base      :    30000. kBytes
   nonl-proj :     4690. kBytes
   fftplans  :    30736. kBytes
   grid      :    54743. kBytes
   one-center:       95. kBytes
   wavefun   :    12868. kBytes
 
 Broyden mixing: mesh for mixing (old mesh)
   NGX = 23   NGY = 23   NGZ = 23
  (NGX  = 96   NGY  = 96   NGZ  = 96)
  gives a total of  12167 points

 initial charge density was supplied:
 charge density of overlapping atoms calculated
 number of electron   92.0000000 magnetization 
 keeping initial charge density in first step


--------------------------------------------------------------------------------------------------------


 Maximum index for augmentation-charges         8600 (set IRDMAX)


--------------------------------------------------------------------------------------------------------


 First call to EWALD:  gamma=   0.219
 Maximum number of real-space cells 3x 3x 3
 Maximum number of reciprocal cells 3x 3x 3

    FEWALD:  cpu time    0.07: real time    0.02
   RESPFUN:  cpu time    0.00: real time    0.00


----------------------------------------- Iteration    1(   1)  ---------------------------------------


    POTLOK:  cpu time    1.79: real time    1.75
    SETDIJ:  cpu time    0.15: real time    0.15
    EDDIAG:  cpu time    4.66: real time    2.96
  RMM-DIIS:  cpu time   21.41: real time    6.79
    ORTHCH:  cpu time    0.33: real time    0.08
       DOS:  cpu time    0.01: real time    0.00
    --------------------------------------------
      LOOP:  cpu time   28.34: real time   11.74

 eigenvalue-minimisations  :   124
 total energy-change (2. order) : 0.2950662E+03  (-0.1690843E+04)
 number of electron   92.0000000 magnetization 
 augmentation part    92.0000000 magnetization 

 Free energy of the ion-electron system (eV)
  ---------------------------------------------------
  alpha Z        PSCENC =        -7.38312591
  Ewald energy   TEWEN  =     -2181.78604715
  -1/2 Hartree   DENC   =       -23.79798714
  -exchange  EXHF       =         0.00000000
  -V(xc)+E(xc)   XCENC  =      -796.35240702
  PAW double counting   =      1078.21717227     -108.50372521
  entropy T*S    EENTRO =         0.03823265
  eigenvalues    EBANDS =       705.50269056
  atomic energy  EATOM  =      1629.13144109
  ---------------------------------------------------
  free energy    TOTEN  =       295.06624414 eV

  energy without entropy =      295.02801149  energy(sigma->0) =      295.05349992


--------------------------------------------------------------------------------------------------------




----------------------------------------- Iteration    1(   2)  ---------------------------------------


    EDDIAG:  cpu time    4.52: real time    2.94
  RMM-DIIS:  cpu time   21.30: real time    6.78
    ORTHCH:  cpu time    0.33: real time    0.08
       DOS:  cpu time    0.01: real time    0.00
    --------------------------------------------
      LOOP:  cpu time   26.17: real time    9.80

 eigenvalue-minimisations  :   124
 total energy-change (2. order) :-0.3100890E+03  (-0.3043526E+03)
 number of electron   92.0000000 magnetization 
 augmentation part    92.0000000 magnetization 

 Free energy of the ion-electron system (eV)
  ---------------------------------------------------
  alpha Z        PSCENC =        -7.38312591
  Ewald energy   TEWEN  =     -2181.78604715
  -1/2 Hartree   DENC   =       -23.79798714
  -exchange  EXHF       =         0.00000000
  -V(xc)+E(xc)   XCENC  =      -796.35240702
  PAW double counting   =      1078.21717227     -108.50372521
  entropy T*S    EENTRO =        -0.01851226
  eigenvalues    EBANDS =       395.47041771
  atomic energy  EATOM  =      1629.13144109
  ---------------------------------------------------
  free energy    TOTEN  =       -15.02277361 eV

  energy without entropy =      -15.00426136  energy(sigma->0) =      -15.01660286


--------------------------------------------------------------------------------------------------------




----------------------------------------- Iteration    1(   3)  ---------------------------------------


    EDDIAG:  cpu time    4.57: real time    2.95
  RMM-DIIS:  cpu time   21.22: real time    6.77
    ORTHCH:  cpu time    0.33: real time    0.08
       DOS:  cpu time    0.01: real time    0.00
    --------------------------------------------
      LOOP:  cpu time   26.16: real time    9.81

 eigenvalue-minimisations  :   124
 total energy-change (2. order) :-0.7133344E+02  (-0.7413281E+02)
 number of electron   92.0000000 magnetization 
 augmentation part    92.0000000 magnetization 

 Free energy of the ion-electron system (eV)
  ---------------------------------------------------
  alpha Z        PSCENC =        -7.38312591
  Ewald energy   TEWEN  =     -2181.78604715
  -1/2 Hartree   DENC   =       -23.79798714
  -exchange  EXHF       =         0.00000000
  -V(xc)+E(xc)   XCENC  =      -796.35240702
  PAW double counting   =      1078.21717227     -108.50372521
  entropy T*S    EENTRO =        -0.07320259
  eigenvalues    EBANDS =       324.19167271
  atomic energy  EATOM  =      1629.13144109
  ---------------------------------------------------
  free energy    TOTEN  =       -86.35620896 eV

  energy without entropy =      -86.28300637  energy(sigma->0) =      -86.33180809


--------------------------------------------------------------------------------------------------------




----------------------------------------- Iteration    1(   4)  ---------------------------------------


    EDDIAG:  cpu time    4.50: real time    2.94
  RMM-DIIS:  cpu time   21.67: real time    6.81
    ORTHCH:  cpu time    0.33: real time    0.08
       DOS:  cpu time    0.01: real time    0.00
    --------------------------------------------
      LOOP:  cpu time   26.60: real time    9.91

 eigenvalue-minimisations  :   124
 total energy-change (2. order) :-0.1631980E+02  (-0.1672872E+02)
 number of electron   92.0000000 magnetization 
 augmentation part    92.0000000 magnetization 

 Free energy of the ion-electron system (eV)
  ---------------------------------------------------
  alpha Z        PSCENC =        -7.38312591
  Ewald energy   TEWEN  =     -2181.78604715
  -1/2 Hartree   DENC   =       -23.79798714
  -exchange  EXHF       =         0.00000000
  -V(xc)+E(xc)   XCENC  =      -796.35240702
  PAW double counting   =      1078.21717227     -108.50372521
  entropy T*S    EENTRO =        -0.01971043
  eigenvalues    EBANDS =       307.81838204
  atomic energy  EATOM  =      1629.13144109
  ---------------------------------------------------
  free energy    TOTEN  =      -102.67600746 eV

  energy without entropy =     -102.65629703  energy(sigma->0) =     -102.66943732


--------------------------------------------------------------------------------------------------------




----------------------------------------- Iteration    1(   5)  ---------------------------------------


    EDDIAG:  cpu time    4.66: real time    2.95
  RMM-DIIS:  cpu time   21.55: real time    6.80
    ORTHCH:  cpu time    0.33: real time    0.08
       DOS:  cpu time    0.01: real time    0.00
    --------------------------------------------
      LOOP:  cpu time   26.56: real time    9.83

 eigenvalue-minimisations  :   124
 total energy-change (2. order) :-0.6531894E+01  (-0.5420519E+01)
 number of electron   92.0000000 magnetization 
 augmentation part    92.0000000 magnetization 

 Free energy of the ion-electron system (eV)
  ---------------------------------------------------
  alpha Z        PSCENC =        -7.38312591
  Ewald energy   TEWEN  =     -2181.78604715
  -1/2 Hartree   DENC   =       -23.79798714
  -exchange  EXHF       =         0.00000000
  -V(xc)+E(xc)   XCENC  =      -796.35240702
  PAW double counting   =      1078.21717227     -108.50372521
  entropy T*S    EENTRO =        -0.02929768
  eigenvalues    EBANDS =       301.29607509
  atomic energy  EATOM  =      1629.13144109
  ---------------------------------------------------
  free energy    TOTEN  =      -109.20790166 eV

  energy without entropy =     -109.17860398  energy(sigma->0) =     -109.19813577


--------------------------------------------------------------------------------------------------------




----------------------------------------- Iteration    1(   6)  ---------------------------------------


    EDDIAG:  cpu time    4.48: real time    2.94
  RMM-DIIS:  cpu time   21.44: real time    6.79
    ORTHCH:  cpu time    0.33: real time    0.08
       DOS:  cpu time    0.01: real time    0.00
    --------------------------------------------
      LOOP:  cpu time   26.31: real time    9.83

 eigenvalue-minimisations  :   124
 total energy-change (2. order) :-0.2386008E+01  (-0.1982015E+01)
 number of electron   92.0000000 magnetization 
 augmentation part    92.0000000 magnetization 

 Free energy of the ion-electron system (eV)
  ---------------------------------------------------
  alpha Z        PSCENC =        -7.38312591
  Ewald energy   TEWEN  =     -2181.78604715
  -1/2 Hartree   DENC   =       -23.79798714
  -exchange  EXHF       =         0.00000000
  -V(xc)+E(xc)   XCENC  =      -796.35240702
  PAW double counting   =      1078.21717227     -108.50372521
  entropy T*S    EENTRO =        -0.02364881
  eigenvalues    EBANDS =       298.90441792
  atomic energy  EATOM  =      1629.13144109
  ---------------------------------------------------
  free energy    TOTEN  =      -111.59390996 eV

  energy without entropy =     -111.57026116  energy(sigma->0) =     -111.58602703


--------------------------------------------------------------------------------------------------------




----------------------------------------- Iteration    1(   7)  ---------------------------------------


    EDDIAG:  cpu time    4.51: real time    2.94
  RMM-DIIS:  cpu time   21.36: real time    6.78
    ORTHCH:  cpu time    0.33: real time    0.08
       DOS:  cpu time    0.01: real time    0.00
    --------------------------------------------
      LOOP:  cpu time   26.23: real time    9.81

 eigenvalue-minimisations  :   124
 total energy-change (2. order) :-0.9843948E+00  (-0.8248713E+00)
 number of electron   92.0000000 magnetization 
 augmentation part    92.0000000 magnetization 

 Free energy of the ion-electron system (eV)
  ---------------------------------------------------
  alpha Z        PSCENC =        -7.38312591
  Ewald energy   TEWEN  =     -2181.78604715
  -1/2 Hartree   DENC   =       -23.79798714
  -exchange  EXHF       =         0.00000000
  -V(xc)+E(xc)   XCENC  =      -796.35240702
  PAW double counting   =      1078.21717227     -108.50372521
  entropy T*S    EENTRO =        -0.02061687
  eigenvalues    EBANDS =       297.91699121
  atomic energy  EATOM  =      1629.13144109
  ---------------------------------------------------
  free energy    TOTEN  =      -112.57830473 eV

  energy without entropy =     -112.55768786  energy(sigma->0) =     -112.57143244


--------------------------------------------------------------------------------------------------------




----------------------------------------- Iteration    1(   8)  ---------------------------------------


    EDDIAG:  cpu time    4.53: real time    2.94
  RMM-DIIS:  cpu time   21.25: real time    6.77
    ORTHCH:  cpu time    0.33: real time    0.08
       DOS:  cpu time    0.01: real time    0.00
    --------------------------------------------
      LOOP:  cpu time   26.16: real time    9.81

 eigenvalue-minimisations  :   124
 total energy-change (2. order) :-0.4433472E+00  (-0.3782838E+00)
 number of electron   92.0000000 magnetization 
 augmentation part    92.0000000 magnetization 

 Free energy of the ion-electron system (eV)
  ---------------------------------------------------
  alpha Z        PSCENC =        -7.38312591
  Ewald energy   TEWEN  =     -2181.78604715
  -1/2 Hartree   DENC   =       -23.79798714
  -exchange  EXHF       =         0.00000000
  -V(xc)+E(xc)   XCENC  =      -796.35240702
  PAW double counting   =      1078.21717227     -108.50372521
  entropy T*S    EENTRO =        -0.02338029
  eigenvalues    EBANDS =       297.47640747
  atomic energy  EATOM  =      1629.13144109
  ---------------------------------------------------
  free energy    TOTEN  =      -113.02165189 eV

  energy without entropy =     -112.99827160  energy(sigma->0) =     -113.01385846


--------------------------------------------------------------------------------------------------------




----------------------------------------- Iteration    1(   9)  ---------------------------------------


    EDDIAG:  cpu time    4.58: real time    2.95
  RMM-DIIS:  cpu time   58.24: real time   16.20
    ORTHCH:  cpu time    0.33: real time    0.08
       DOS:  cpu time    0.01: real time    0.00
    --------------------------------------------
      LOOP:  cpu time   63.16: real time   19.23

 eigenvalue-minimisations  :   338
 total energy-change (2. order) :-0.3922929E+00  (-0.3642728E+00)
 number of electron   92.0000000 magnetization 
 augmentation part    92.0000000 magnetization 

 Free energy of the ion-electron system (eV)
  ---------------------------------------------------
  alpha Z        PSCENC =        -7.38312591
  Ewald energy   TEWEN  =     -2181.78604715
  -1/2 Hartree   DENC   =       -23.79798714
  -exchange  EXHF       =         0.00000000
  -V(xc)+E(xc)   XCENC  =      -796.35240702
  PAW double counting   =      1078.21717227     -108.50372521
  entropy T*S    EENTRO =        -0.00010250
  eigenvalues    EBANDS =       297.06083674
  atomic energy  EATOM  =      1629.13144109
  ---------------------------------------------------
  free energy    TOTEN  =      -113.41394484 eV

  energy without entropy =     -113.41384234  energy(sigma->0) =     -113.41391067


--------------------------------------------------------------------------------------------------------




----------------------------------------- Iteration    1(  10)  ---------------------------------------


    EDDIAG:  cpu time    4.50: real time    2.94
  RMM-DIIS:  cpu time   51.21: real time   14.35
    ORTHCH:  cpu time    0.33: real time    0.08
       DOS:  cpu time    0.01: real time    0.00
    --------------------------------------------
      LOOP:  cpu time   56.13: real time   17.40

 eigenvalue-minimisations  :   298
 total energy-change (2. order) :-0.8093260E-01  (-0.2542565E-01)
 number of electron   92.0000000 magnetization 
 augmentation part    92.0000000 magnetization 

 Free energy of the ion-electron system (eV)
  ---------------------------------------------------
  alpha Z        PSCENC =        -7.38312591
  Ewald energy   TEWEN  =     -2181.78604715
  -1/2 Hartree   DENC   =       -23.79798714
  -exchange  EXHF       =         0.00000000
  -V(xc)+E(xc)   XCENC  =      -796.35240702
  PAW double counting   =      1078.21717227     -108.50372521
  entropy T*S    EENTRO =        -0.02423359
  eigenvalues    EBANDS =       297.00403522
  atomic energy  EATOM  =      1629.13144109
  ---------------------------------------------------
  free energy    TOTEN  =      -113.49487744 eV

  energy without entropy =     -113.47064385  energy(sigma->0) =     -113.48679958


--------------------------------------------------------------------------------------------------------




----------------------------------------- Iteration    1(  11)  ---------------------------------------


    EDDIAG:  cpu time    4.52: real time    2.94
  RMM-DIIS:  cpu time   46.57: real time   13.10
    ORTHCH:  cpu time    0.33: real time    0.08
       DOS:  cpu time    0.01: real time    0.00
    --------------------------------------------
      LOOP:  cpu time   51.43: real time   16.13

 eigenvalue-minimisations  :   268
 total energy-change (2. order) :-0.4352572E-02  (-0.1054350E-02)
 number of electron   92.0000000 magnetization 
 augmentation part    92.0000000 magnetization 

 Free energy of the ion-electron system (eV)
  ---------------------------------------------------
  alpha Z        PSCENC =        -7.38312591
  Ewald energy   TEWEN  =     -2181.78604715
  -1/2 Hartree   DENC   =       -23.79798714
  -exchange  EXHF       =         0.00000000
  -V(xc)+E(xc)   XCENC  =      -796.35240702
  PAW double counting   =      1078.21717227     -108.50372521
  entropy T*S    EENTRO =        -0.02626114
  eigenvalues    EBANDS =       297.00171020
  atomic energy  EATOM  =      1629.13144109
  ---------------------------------------------------
  free energy    TOTEN  =      -113.49923002 eV

  energy without entropy =     -113.47296887  energy(sigma->0) =     -113.49047630


--------------------------------------------------------------------------------------------------------




----------------------------------------- Iteration    1(  12)  ---------------------------------------


    EDDIAG:  cpu time    4.58: real time    2.94
  RMM-DIIS:  cpu time   36.72: real time   10.53
    ORTHCH:  cpu time    0.33: real time    0.08
       DOS:  cpu time    0.01: real time    0.00
    CHARGE:  cpu time    1.73: real time    1.64
    MIXING:  cpu time    0.06: real time    0.06
    --------------------------------------------
      LOOP:  cpu time   43.43: real time   15.26

 eigenvalue-minimisations  :   203
 total energy-change (2. order) :-0.5590579E-04  (-0.3575620E-04)
 number of electron   91.9999997 magnetization 
 augmentation part    -1.0977754 magnetization 

 Broyden mixing:
  rms(total) = 0.53612E+00    rms(broyden)= 0.53610E+00
  rms(prec ) = 0.88494E+00
  weight for this iteration     100.00

 Free energy of the ion-electron system (eV)
  ---------------------------------------------------
  alpha Z        PSCENC =        -7.38312591
  Ewald energy   TEWEN  =     -2181.78604715
  -1/2 Hartree   DENC   =       -23.79798714
  -exchange  EXHF       =         0.00000000
  -V(xc)+E(xc)   XCENC  =      -796.35240702
  PAW double counting   =      1078.21717227     -108.50372521
  entropy T*S    EENTRO =        -0.02630583
  eigenvalues    EBANDS =       297.00169898
  atomic energy  EATOM  =      1629.13144109
  ---------------------------------------------------
  free energy    TOTEN  =      -113.49928592 eV

  energy without entropy =     -113.47298009  energy(sigma->0) =     -113.49051731


--------------------------------------------------------------------------------------------------------




----------------------------------------- Iteration    1(  13)  ---------------------------------------


    POTLOK:  cpu time    1.75: real time    1.75
    SETDIJ:  cpu time    0.15: real time    0.15
    EDDIAG:  cpu time    4.73: real time    3.03
  RMM-DIIS:  cpu time   45.42: real time   13.13
    ORTHCH:  cpu time    0.33: real time    0.08
       DOS:  cpu time    0.01: real time    0.00
    CHARGE:  cpu time    1.71: real time    1.62
    MIXING:  cpu time    0.05: real time    0.05
    --------------------------------------------
      LOOP:  cpu time   54.17: real time   19.82

 eigenvalue-minimisations  :   270
 total energy-change (2. order) : 0.6379568E+00  (-0.8893465E-01)
 number of electron   91.9999997 magnetization 
 augmentation part    -1.1084960 magnetization 

 Broyden mixing:
  rms(total) = 0.32735E+00    rms(broyden)= 0.32735E+00
  rms(prec ) = 0.48438E+00
  weight for this iteration     100.00

 eigenvalues of (default mixing * dielectric matrix)
  average eigenvalue GAMMA=   2.4607
  2.4607

 Free energy of the ion-electron system (eV)
  ---------------------------------------------------
  alpha Z        PSCENC =        -7.38312591
  Ewald energy   TEWEN  =     -2181.78604715
  -1/2 Hartree   DENC   =       -25.29945313
  -exchange  EXHF       =         0.00000000
  -V(xc)+E(xc)   XCENC  =      -795.23264863
  PAW double counting   =      1080.41810624     -110.83933968
  entropy T*S    EENTRO =        -0.03922397
  eigenvalues    EBANDS =       298.16896206
  atomic energy  EATOM  =      1629.13144109
  ---------------------------------------------------
  free energy    TOTEN  =      -112.86132907 eV

  energy without entropy =     -112.82210511  energy(sigma->0) =     -112.84825442


--------------------------------------------------------------------------------------------------------




----------------------------------------- Iteration    1(  14)  ---------------------------------------


    POTLOK:  cpu time    1.76: real time    1.76
    SETDIJ:  cpu time    0.15: real time    0.15
    EDDIAG:  cpu time    4.63: real time    2.95
  RMM-DIIS:  cpu time   47.96: real time   13.71
    ORTHCH:  cpu time    0.33: real time    0.08
       DOS:  cpu time    0.01: real time    0.00
    CHARGE:  cpu time    1.72: real time    1.62
    MIXING:  cpu time    0.06: real time    0.05
    --------------------------------------------
      LOOP:  cpu time   56.62: real time   20.33

 eigenvalue-minimisations  :   281
 total energy-change (2. order) : 0.2457549E+00  (-0.2298926E-01)
 number of electron   91.9999996 magnetization 
 augmentation part    -1.1242346 magnetization 

 Broyden mixing:
  rms(total) = 0.12071E+00    rms(broyden)= 0.12071E+00
  rms(prec ) = 0.17842E+00
  weight for this iteration     100.00

 eigenvalues of (default mixing * dielectric matrix)
  average eigenvalue GAMMA=   1.8888
  2.6032  1.1743

 Free energy of the ion-electron system (eV)
  ---------------------------------------------------
  alpha Z        PSCENC =        -7.38312591
  Ewald energy   TEWEN  =     -2181.78604715
  -1/2 Hartree   DENC   =       -26.44079057
  -exchange  EXHF       =         0.00000000
  -V(xc)+E(xc)   XCENC  =      -793.85733055
  PAW double counting   =      1082.20473354     -112.78945611
  entropy T*S    EENTRO =        -0.03959672
  eigenvalues    EBANDS =       298.34459818
  atomic energy  EATOM  =      1629.13144109
  ---------------------------------------------------
  free energy    TOTEN  =      -112.61557419 eV

  energy without entropy =     -112.57597747  energy(sigma->0) =     -112.60237529


--------------------------------------------------------------------------------------------------------




----------------------------------------- Iteration    1(  15)  ---------------------------------------


    POTLOK:  cpu time    1.81: real time    1.76
    SETDIJ:  cpu time    0.15: real time    0.15
    EDDIAG:  cpu time    4.64: real time    2.95
  RMM-DIIS:  cpu time   49.87: real time   14.16
    ORTHCH:  cpu time    0.33: real time    0.08
       DOS:  cpu time    0.01: real time    0.00
    CHARGE:  cpu time    1.71: real time    1.62
    MIXING:  cpu time    0.07: real time    0.05
    --------------------------------------------
      LOOP:  cpu time   58.61: real time   20.77

 eigenvalue-minimisations  :   292
 total energy-change (2. order) : 0.4083476E-01  (-0.3906052E-02)
 number of electron   91.9999996 magnetization 
 augmentation part    -1.1359506 magnetization 

 Broyden mixing:
  rms(total) = 0.14017E-01    rms(broyden)= 0.14017E-01
  rms(prec ) = 0.25506E-01
  weight for this iteration     100.00

 eigenvalues of (default mixing * dielectric matrix)
  average eigenvalue GAMMA=   1.8634
  2.6237  1.1257  1.8409

 Free energy of the ion-electron system (eV)
  ---------------------------------------------------
  alpha Z        PSCENC =        -7.38312591
  Ewald energy   TEWEN  =     -2181.78604715
  -1/2 Hartree   DENC   =       -27.03136759
  -exchange  EXHF       =         0.00000000
  -V(xc)+E(xc)   XCENC  =      -792.98634062
  PAW double counting   =      1083.22779193     -113.92857132
  entropy T*S    EENTRO =        -0.03841545
  eigenvalues    EBANDS =       298.21989560
  atomic energy  EATOM  =      1629.13144109
  ---------------------------------------------------
  free energy    TOTEN  =      -112.57473943 eV

  energy without entropy =     -112.53632398  energy(sigma->0) =     -112.56193428


--------------------------------------------------------------------------------------------------------




----------------------------------------- Iteration    1(  16)  ---------------------------------------


    POTLOK:  cpu time    1.88: real time    1.77
    SETDIJ:  cpu time    0.15: real time    0.15
    EDDIAG:  cpu time    4.64: real time    2.95
  RMM-DIIS:  cpu time   50.64: real time   14.29
    ORTHCH:  cpu time    0.33: real time    0.08
       DOS:  cpu time    0.01: real time    0.00
    CHARGE:  cpu time    1.73: real time    1.63
    MIXING:  cpu time    0.08: real time    0.06
    --------------------------------------------
      LOOP:  cpu time   59.47: real time   20.93

 eigenvalue-minimisations  :   296
 total energy-change (2. order) : 0.8628632E-03  (-0.4816716E-03)
 number of electron   91.9999996 magnetization 
 augmentation part    -1.1387519 magnetization 

 Broyden mixing:
  rms(total) = 0.43876E-02    rms(broyden)= 0.43876E-02
  rms(prec ) = 0.82451E-02
  weight for this iteration     100.00

 eigenvalues of (default mixing * dielectric matrix)
  average eigenvalue GAMMA=   1.8853
  2.6042  2.4161  1.2604  1.2604

 Free energy of the ion-electron system (eV)
  ---------------------------------------------------
  alpha Z        PSCENC =        -7.38312591
  Ewald energy   TEWEN  =     -2181.78604715
  -1/2 Hartree   DENC   =       -27.02563364
  -exchange  EXHF       =         0.00000000
  -V(xc)+E(xc)   XCENC  =      -792.90509679
  PAW double counting   =      1083.48378680     -114.21099602
  entropy T*S    EENTRO =        -0.03910938
  eigenvalues    EBANDS =       298.16090443
  atomic energy  EATOM  =      1629.13144109
  ---------------------------------------------------
  free energy    TOTEN  =      -112.57387657 eV

  energy without entropy =     -112.53476719  energy(sigma->0) =     -112.56084011


--------------------------------------------------------------------------------------------------------




----------------------------------------- Iteration    1(  17)  ---------------------------------------


    POTLOK:  cpu time    1.90: real time    1.77
    SETDIJ:  cpu time    0.15: real time    0.15
    EDDIAG:  cpu time    4.64: real time    2.95
  RMM-DIIS:  cpu time   43.33: real time   12.31
    ORTHCH:  cpu time    0.33: real time    0.08
       DOS:  cpu time    0.01: real time    0.00
    --------------------------------------------
      LOOP:  cpu time   50.37: real time   17.26

 eigenvalue-minimisations  :   251
 total energy-change (2. order) :-0.5701154E-05  (-0.6083238E-04)
 number of electron   91.9999996 magnetization 
 augmentation part    -1.1387519 magnetization 

 Free energy of the ion-electron system (eV)
  ---------------------------------------------------
  alpha Z        PSCENC =        -7.38312591
  Ewald energy   TEWEN  =     -2181.78604715
  -1/2 Hartree   DENC   =       -26.99859937
  -exchange  EXHF       =         0.00000000
  -V(xc)+E(xc)   XCENC  =      -792.88975193
  PAW double counting   =      1083.54256824     -114.27975151
  entropy T*S    EENTRO =        -0.03877716
  eigenvalues    EBANDS =       298.12816144
  atomic energy  EATOM  =      1629.13144109
  ---------------------------------------------------
  free energy    TOTEN  =      -112.57388227 eV

  energy without entropy =     -112.53510510  energy(sigma->0) =     -112.56095655


--------------------------------------------------------------------------------------------------------




 average (electrostatic) potential at core
  the test charge radii are     1.0714  1.0406
  (the norm of the test charge is              1.0000)
       1 -50.4149       2 -72.9201       3 -73.1086       4 -73.0314       5 -73.0314
       6 -73.1074       7 -73.0804       8 -73.0612       9 -72.9699      10 -73.0475
      11 -73.0314      12 -73.0314      13 -73.0703      14 -73.0466      15 -73.0612
      16 -72.9699      17 -73.1074      18 -73.0804      19 -72.9699      20 -73.0612
      21 -73.1353      22 -73.0296      23 -73.0365      24 -73.0365      25 -73.0703
      26 -73.0466      27 -72.9699      28 -73.0612      29 -73.0410      30 -73.0365
      31 -73.0365
 
 
 
 E-fermi :   7.8532     XC(G=0): -10.0132     alpha+bet :-14.3073
   add alpha+bet to get absolut eigen values

 k-point   1 :       0.2500    0.2500    0.2500
  band No.  band energies     occupation 
      1      -2.9538      2.00000
      2      -1.9235      2.00000
      3      -1.8730      2.00000
      4      -1.6396      2.00000
      5      -0.8024      2.00000
      6      -0.7489      2.00000
      7      -0.3842      2.00000
      8       0.2938      2.00000
      9       0.3325      2.00000
     10       0.5041      2.00000
     11       0.6131      2.00000
     12       1.3478      2.00000
     13       1.4016      2.00000
     14       1.4198      2.00000
     15       1.5536      2.00000
     16       1.7295      2.00000
     17       1.9668      2.00000
     18       2.6625      2.00000
     19       2.6783      2.00000
     20       2.8496      2.00000
     21       3.5423      2.00000
     22       3.6133      2.00000
     23       3.6601      2.00000
     24       3.7136      2.00000
     25       3.7517      2.00000
     26       4.0380      2.00000
     27       4.5415      2.00000
     28       4.5955      2.00000
     29       4.6349      2.00000
     30       4.7564      2.00000
     31       4.8132      2.00000
     32       4.8842      2.00000
     33       4.9345      2.00000
     34       5.0576      2.00000
     35       5.2411      2.00000
     36       5.7190      2.00000
     37       5.8334      2.00000
     38       6.3344      2.00000
     39       6.7373      2.00000
     40       6.7631      2.00000
     41       6.7967      2.00000
     42       6.9707      2.00000
     43       7.0137      2.00000
     44       7.0723      2.00000
     45       7.1148      2.00000
     46       7.8147      1.31948
     47       7.8463      1.05894
     48       7.9404      0.33400
     49       8.0800     -0.06805
     50       8.1650     -0.04992
     51       8.2292     -0.02311
     52       8.2574     -0.01494
     53       8.3300     -0.00383
     54       8.4171     -0.00049
     55       9.0915      0.00000
     56       9.1545      0.00000
     57       9.1650      0.00000
     58       9.3950      0.00000
     59       9.4166      0.00000
     60       9.4790      0.00000
     61      10.0048      0.00000
     62      10.0888      0.00000

 k-point   2 :      -0.2500    0.2500    0.2500
  band No.  band energies     occupation 
      1      -2.9567      2.00000
      2      -1.9165      2.00000
      3      -1.8163      2.00000
      4      -1.7069      2.00000
      5      -0.8007      2.00000
      6      -0.6666      2.00000
      7      -0.5202      2.00000
      8       0.2993      2.00000
      9       0.3995      2.00000
     10       0.4339      2.00000
     11       0.6853      2.00000
     12       1.3761      2.00000
     13       1.4604      2.00000
     14       1.4731      2.00000
     15       1.5061      2.00000
     16       1.7268      2.00000
     17       1.8718      2.00000
     18       2.6308      2.00000
     19       2.7359      2.00000
     20       2.7733      2.00000
     21       3.5529      2.00000
     22       3.6256      2.00000
     23       3.6539      2.00000
     24       3.6885      2.00000
     25       3.7648      2.00000
     26       4.0066      2.00000
     27       4.5713      2.00000
     28       4.6540      2.00000
     29       4.6761      2.00000
     30       4.7241      2.00000
     31       4.7434      2.00000
     32       4.9155      2.00000
     33       4.9346      2.00000
     34       5.0558      2.00000
     35       5.1803      2.00000
     36       5.7322      2.00000
     37       5.9521      2.00000
     38       6.2621      2.00000
     39       6.7560      2.00000
     40       6.7762      2.00000
     41       6.8811      2.00000
     42       7.0051      2.00000
     43       7.0229      2.00000
     44       7.0588      2.00000
     45       7.1353      2.00000
     46       7.8464      1.05755
     47       7.9124      0.52277
     48       7.9791      0.13459
     49       8.0689     -0.06290
     50       8.1285     -0.06520
     51       8.1375     -0.06191
     52       8.1814     -0.04235
     53       8.2271     -0.02381
     54       8.2764     -0.01081
     55       9.1349      0.00000
     56       9.1585      0.00000
     57       9.3035      0.00000
     58       9.4021      0.00000
     59       9.3983      0.00000
     60       9.4824      0.00000
     61      10.0114      0.00000
     62      10.0367      0.00000


--------------------------------------------------------------------------------------------------------


 soft charge-density along one line, spin component           1
         0         1         2         3         4         5         6         7         8         9
 total charge-density along one line
 
 pseudopotential strength for first ion, spin component:           1
  3.575  -0.046   0.000   0.000   0.000   0.000   0.000   0.000
 -0.046  -0.001   0.000   0.000   0.000   0.000   0.000   0.000
  0.000   0.000   0.746   0.000   0.000  -0.044   0.000   0.000
  0.000   0.000   0.000   0.746   0.000   0.000  -0.044   0.000
  0.000   0.000   0.000   0.000   0.746   0.000   0.000  -0.044
  0.000   0.000  -0.044   0.000   0.000  -0.031   0.000   0.000
  0.000   0.000   0.000  -0.044   0.000   0.000  -0.031   0.000
  0.000   0.000   0.000   0.000  -0.044   0.000   0.000  -0.031
 total augmentation occupancy for first ion, spin component:           1
  1.099  -0.054   0.000   0.020   0.020   0.000   0.001   0.001
 -0.054   0.005   0.000   0.003   0.003   0.000   0.000   0.000
  0.000   0.000   0.990   0.000   0.000   0.051   0.000   0.000
  0.020   0.003   0.000   0.889  -0.061   0.000   0.047  -0.005
  0.020   0.003   0.000  -0.061   0.889   0.000  -0.005   0.047
  0.000   0.000   0.051   0.000   0.000   0.003   0.000   0.000
  0.001   0.000   0.000   0.047  -0.005   0.000   0.003   0.000
  0.001   0.000   0.000  -0.005   0.047   0.000   0.000   0.003


------------------------ aborting loop because EDIFF is reached ----------------------------------------




--------------------------------------------------------------------------------------------------------



  FREE ENERGIE OF THE ION-ELECTRON SYSTEM (eV)
  ---------------------------------------------------
  free  energy   TOTEN  =      -112.573882 eV

  energy  without entropy=     -112.535105  energy(sigma->0) =     -112.560957
 
    CHARGE:  cpu time    1.63: real time    1.63
    FORLOC:  cpu time    0.72: real time    0.72
    FORNL :  cpu time    5.79: real time    5.80
    STRESS:  cpu time   38.89: real time   10.38
    FORCOR:  cpu time    2.43: real time    2.43
    FORHAR:  cpu time    1.10: real time    1.10
    MIXING:  cpu time    0.08: real time    0.06

  FORCE on cell =-STRESS in cart. coord.  units (eV):
  Direction    XX          YY          ZZ          XY          YZ          ZX
  --------------------------------------------------------------------------------------
  Alpha Z    -7.38313    -7.38313    -7.38313
  Ewald    -724.30376  -733.18739  -724.30376     0.00000     0.00000     5.52594
  Hartree    11.06569     4.95586    11.06569     0.00000     0.00000     3.04697
  E(xc)    -260.84040  -260.90376  -260.84040     0.00000     0.00000     0.06593
  Local     -18.69733    -3.69167   -18.69733     0.00000     0.00000    -8.38809
  n-local   576.96038   577.31057   576.96039     0.29739    -1.10280    -0.53250
  augment   -30.45064   -30.55467   -30.45064     0.00000     0.00002    -0.03190
  Kinetic   452.00897   456.11231   452.00936    -3.68444     0.91387     2.18095
  Fock        0.00000     0.00000     0.00000     0.00000     0.00000     0.00000
  -------------------------------------------------------------------------------------
  Total      -1.64002     2.65812    -1.64002     0.00000     0.00000     1.86729
  in kB      -4.96807     8.05218    -4.96807     0.00000     0.00000     5.65656
  external pressure =       -0.63 kB  Pullay stress =        0.00 kB


 VOLUME and BASIS-vectors are now :
 -----------------------------------------------------------------------------
  energy-cutoff  :      300.00
  volume of cell :      528.90
      direct lattice vectors                 reciprocal lattice vectors
     8.087054000  0.000000000  0.000000000     0.123654423  0.000000000  0.000000000
     0.000000000  8.087054000  0.000000000     0.000000000  0.123654423  0.000000000
     0.000000000  0.000000000  8.087054000     0.000000000  0.000000000  0.123654423

  length of vectors
     8.087054000  8.087054000  8.087054000     0.123654423  0.123654423  0.123654423


 FORCES acting on ions
    electron-ion (+dipol)            ewald-force                    non-local-force                 convergence-correction
 -----------------------------------------------------------------------------------------------
   -.518E+01 -.481E-13 -.518E+01   0.512E+01 0.391E-14 0.512E+01   0.553E-01 0.000E+00 0.553E-01   0.876E-02 -.122E-13 0.876E-02
   -.131E+01 -.131E-12 -.131E+01   0.113E+01 -.322E-14 0.113E+01   0.161E+00 0.000E+00 0.161E+00   0.643E-02 0.247E-13 0.643E-02
   -.294E+01 -.675E-13 -.294E+01   0.270E+01 -.167E-15 0.270E+01   0.248E+00 0.000E+00 0.248E+00   0.113E-01 0.203E-13 0.113E-01
   -.259E+01 -.654E+01 -.401E+01   0.243E+01 0.654E+01 0.415E+01   0.140E+00 -.560E-01 -.205E+00   0.102E-01 0.119E-01 0.964E-02
   -.401E+01 -.654E+01 -.259E+01   0.415E+01 0.654E+01 0.243E+01   -.205E+00 -.560E-01 0.140E+00   0.964E-02 0.119E-01 0.102E-01
   0.433E+00 0.425E-13 -.122E+01   -.627E+00 0.816E-12 0.106E+01   0.224E+00 0.000E+00 0.183E+00   -.544E-02 0.148E-13 0.657E-02
   0.273E+01 -.225E-13 -.201E+01   -.247E+01 -.140E-13 0.207E+01   -.270E+00 0.000E+00 -.853E-01   -.104E-01 0.177E-13 0.928E-02
   0.280E+01 -.325E+01 -.724E+00   -.263E+01 0.327E+01 0.800E+00   -.172E+00 -.429E-01 -.941E-01   -.105E-01 0.906E-02 0.604E-02
   0.501E+01 -.116E+02 -.780E+01   -.495E+01 0.117E+02 0.786E+01   -.461E-01 -.217E+00 -.646E-01   -.104E-01 0.159E-01 0.150E-01
   -.408E+01 -.208E-13 -.408E+01   0.413E+01 -.155E-14 0.413E+01   -.841E-01 0.000E+00 -.841E-01   0.872E-02 -.255E-13 0.872E-02
   -.259E+01 0.654E+01 -.401E+01   0.243E+01 -.654E+01 0.415E+01   0.140E+00 0.560E-01 -.205E+00   0.102E-01 -.119E-01 0.964E-02
   -.401E+01 0.654E+01 -.259E+01   0.415E+01 -.654E+01 0.243E+01   -.205E+00 0.560E-01 0.140E+00   0.964E-02 -.119E-01 0.102E-01
   0.416E+01 0.208E-12 -.399E+01   -.422E+01 0.311E-14 0.414E+01   0.104E+00 -.173E-17 -.160E+00   -.892E-02 -.147E-13 0.906E-02
   0.782E+01 0.561E-13 -.776E+01   -.796E+01 -.862E-12 0.783E+01   0.108E+00 0.000E+00 -.958E-01   -.153E-01 -.179E-13 0.145E-01
   0.280E+01 0.325E+01 -.724E+00   -.263E+01 -.327E+01 0.800E+00   -.172E+00 0.429E-01 -.941E-01   -.105E-01 -.906E-02 0.604E-02
   0.501E+01 0.116E+02 -.780E+01   -.495E+01 -.117E+02 0.786E+01   -.461E-01 0.217E+00 -.646E-01   -.104E-01 -.159E-01 0.150E-01
   -.122E+01 -.953E-13 0.433E+00   0.106E+01 -.888E-15 -.627E+00   0.183E+00 0.217E-18 0.224E+00   0.657E-02 0.215E-13 -.544E-02
   -.201E+01 0.843E-14 0.273E+01   0.207E+01 0.316E-14 -.247E+01   -.853E-01 0.434E-18 -.270E+00   0.928E-02 0.193E-13 -.104E-01
   -.780E+01 -.116E+02 0.501E+01   0.786E+01 0.117E+02 -.495E+01   -.646E-01 -.217E+00 -.461E-01   0.150E-01 0.159E-01 -.104E-01
   -.724E+00 -.325E+01 0.280E+01   0.800E+00 0.327E+01 -.263E+01   -.941E-01 -.429E-01 -.172E+00   0.604E-02 0.906E-02 -.105E-01
   0.122E+01 0.328E-13 0.122E+01   -.115E+01 0.888E-15 -.115E+01   -.757E-01 0.000E+00 -.757E-01   -.739E-02 0.634E-14 -.739E-02
   0.301E+01 -.486E-13 0.301E+01   -.267E+01 0.239E-14 -.267E+01   -.328E+00 0.000E+00 -.328E+00   -.103E-01 0.956E-14 -.103E-01
   0.753E+01 -.859E+01 0.521E+00   -.773E+01 0.877E+01 -.597E+00   0.245E+00 -.209E+00 0.126E+00   -.150E-01 0.139E-01 -.561E-02
   0.521E+00 -.859E+01 0.753E+01   -.597E+00 0.877E+01 -.773E+01   0.126E+00 -.209E+00 0.245E+00   -.561E-02 0.139E-01 -.150E-01
   -.399E+01 0.226E-12 0.416E+01   0.414E+01 0.153E-13 -.422E+01   -.160E+00 0.000E+00 0.104E+00   0.906E-02 -.219E-13 -.892E-02
   -.776E+01 -.251E-13 0.782E+01   0.783E+01 -.865E-12 -.796E+01   -.958E-01 0.000E+00 0.108E+00   0.145E-01 -.189E-13 -.153E-01
   -.780E+01 0.116E+02 0.501E+01   0.786E+01 -.117E+02 -.495E+01   -.646E-01 0.217E+00 -.461E-01   0.150E-01 -.159E-01 -.104E-01
   -.724E+00 0.325E+01 0.280E+01   0.800E+00 -.327E+01 -.263E+01   -.941E-01 0.429E-01 -.172E+00   0.604E-02 -.906E-02 -.105E-01
   0.757E+01 -.842E-13 0.757E+01   -.774E+01 -.122E-14 -.774E+01   0.214E+00 0.000E+00 0.214E+00   -.148E-01 -.966E-14 -.148E-01
   0.753E+01 0.859E+01 0.521E+00   -.773E+01 -.877E+01 -.597E+00   0.245E+00 0.209E+00 0.126E+00   -.150E-01 -.139E-01 -.561E-02
   0.521E+00 0.859E+01 0.753E+01   -.597E+00 -.877E+01 -.773E+01   0.126E+00 0.209E+00 0.245E+00   -.561E-02 -.139E-01 -.150E-01
 -----------------------------------------------------------------------------------------------
   -.569E-01 0.238E-13 -.569E-01   -.111E-15 -.160E-13 -.693E-13   0.561E-01 -.555E-16 0.561E-01   0.769E-03 0.154E-13 0.769E-03
 
 
 POSITION                                       TOTAL-FORCE (eV/Angst)
 -----------------------------------------------------------------------------------
      2.10907      4.04353      2.10907        -0.001637      0.000000     -0.001637
      8.08369      0.00000      8.08369        -0.008718      0.000000     -0.008718
      2.00758      0.00000      2.00758         0.020317      0.000000      0.020317
      2.02206      2.01897      0.00306        -0.010760     -0.036627     -0.052845
      0.00306      2.01897      2.02206        -0.052845     -0.036627     -0.010760
      4.04056      0.00000      8.05605         0.024598      0.000000      0.020705
      6.09250      0.00000      2.02090        -0.017104      0.000000     -0.023328
      6.08198      2.01435      8.07936        -0.010778     -0.013825     -0.012620
      4.08015      2.00196      2.02021         0.004176     -0.040069      0.017955
      8.07980      4.04353      8.07980        -0.025609      0.000000     -0.025609
      2.02206      6.06808      0.00306        -0.010760      0.036627     -0.052845
      0.00306      6.06808      2.02206        -0.052845      0.036627     -0.010760
      4.06327      4.04353      8.06632         0.034189      0.000000      0.005722
      6.03983      4.04353      2.03207        -0.050486      0.000000     -0.007670
      6.08198      6.07271      8.07936        -0.010778      0.013825     -0.012620
      4.08015      6.08510      2.02021         0.004176      0.040069      0.017955
      8.05605      0.00000      4.04056         0.020705      0.000000      0.024598
      2.02090      0.00000      6.09250        -0.023328      0.000000     -0.017104
      2.02021      2.00196      4.08015         0.017955     -0.040069      0.004176
      8.07936      2.01435      6.08198        -0.012620     -0.013825     -0.010778
      4.04987      0.00000      4.04987        -0.011816      0.000000     -0.011816
      6.07377      0.00000      6.07377        -0.000481      0.000000     -0.000481
      6.02122      2.05773      4.03112         0.025492     -0.018612      0.044331
      4.03112      2.05773      6.02122         0.044331     -0.018612      0.025492
      8.06632      4.04353      4.06327         0.005722      0.000000      0.034189
      2.03207      4.04353      6.03983        -0.007670      0.000000     -0.050486
      2.02021      6.08510      4.08015         0.017955      0.040069      0.004176
      8.07936      6.07271      6.08198        -0.012620      0.013825     -0.010778
      6.02985      4.04353      6.02985         0.031414      0.000000      0.031414
      6.02122      6.02932      4.03112         0.025492      0.018612      0.044331
      4.03112      6.02932      6.02122         0.044331      0.018612      0.025492
 -----------------------------------------------------------------------------------
    total drift:                                0.000001      0.000000      0.000001


--------------------------------------------------------------------------------------------------------


    POTLOK:  cpu time    2.05: real time    1.92


--------------------------------------------------------------------------------------------------------


  FORCES: max atom, RMS     0.065191    0.041891
  FORCE total and by dimension    0.233239    0.052845
     LOOP+:  cpu time  758.98: real time  272.02
    4ORBIT:  cpu time    0.00: real time    0.00

 total amount of memory used by VASP on root node 133132. kBytes
========================================================================

   base      :    30000. kBytes
   nonl-proj :     4690. kBytes
   fftplans  :    30736. kBytes
   grid      :    54743. kBytes
   one-center:       95. kBytes
   wavefun   :    12868. kBytes
 
  
  
 General timing and accounting informations for this job:
 ========================================================
  
                  Total CPU time used (sec):      766.881
                            User time (sec):      760.629
                          System time (sec):        6.252
                         Elapsed time (sec):      276.063
  
                   Maximum memory used (kb):           0.
                   Average memory used (kb):           0.
  
                          Minor page faults:       118365
                          Major page faults:            0
                 Voluntary context switches:         4863
