Processors received = 1
script running on host compute-0-2.local
PBS_NODEFILE
compute-0-2
 running on    1 nodes
 distr:  one band on    1 nodes,    1 groups
 vasp.5.2.2 15Apr09 complex 
 POSCAR found type information on POSCAR  Mg Al
 POSCAR found :  2 types and   31 ions

 ----------------------------------------------------------------------------- 
|                                                                             |
|  ADVICE TO THIS USER RUNNING 'VASP/VAMP'   (HEAR YOUR MASTER'S VOICE ...):  |
|                                                                             |
|      You have a (more or less) 'large supercell' and for larger cells       |
|      it might be more efficient to use real space projection operators      |
|      So try LREAL= Auto  in the INCAR   file.                               |
|      Mind: If you want to do a very accurate calculations keep the          |
|      reciprocal projection scheme          (i.e. LREAL=.FALSE.)             |
|                                                                             |
 ----------------------------------------------------------------------------- 

 LDA part: xc-table for Pade appr. of Perdew
 POSCAR, INCAR and KPOINTS ok, starting setup
 FFT: planning ...(           1 )
 reading WAVECAR
 entering main loop
       N       E                     dE             d eps       ncg     rms          rms(c)
RMM:   1     0.300110532297E+03    0.30011E+03   -0.16990E+04   124   0.645E+02
RMM:   2    -0.123157452135E+02   -0.31243E+03   -0.30772E+03   124   0.136E+02
RMM:   3    -0.863580553375E+02   -0.74042E+02   -0.75382E+02   124   0.463E+01
RMM:   4    -0.102504153810E+03   -0.16146E+02   -0.16707E+02   124   0.263E+01
RMM:   5    -0.108749779315E+03   -0.62456E+01   -0.52714E+01   124   0.139E+01
RMM:   6    -0.111271311617E+03   -0.25215E+01   -0.20379E+01   124   0.807E+00
RMM:   7    -0.112317028334E+03   -0.10457E+01   -0.88074E+00   124   0.485E+00
RMM:   8    -0.112799131756E+03   -0.48210E+00   -0.40527E+00   124   0.309E+00
RMM:   9    -0.113182891258E+03   -0.38376E+00   -0.35691E+00   330   0.196E+00
RMM:  10    -0.113240856919E+03   -0.57966E-01   -0.26545E-01   306   0.435E-01
RMM:  11    -0.113243093327E+03   -0.22364E-02   -0.96263E-03   255   0.841E-02
RMM:  12    -0.113243135029E+03   -0.41702E-04   -0.26854E-04   196   0.247E-02    0.547E+00
RMM:  13    -0.112410510630E+03    0.83262E+00   -0.15876E+00   270   0.174E+00    0.331E+00
RMM:  14    -0.112170525786E+03    0.23998E+00   -0.29156E-01   291   0.101E+00    0.148E+00
RMM:  15    -0.112110535147E+03    0.59991E-01   -0.62924E-02   289   0.574E-01    0.192E-01
RMM:  16    -0.112108851920E+03    0.16832E-02   -0.70449E-03   296   0.154E-01    0.594E-02
RMM:  17    -0.112108709010E+03    0.14291E-03   -0.93905E-04   272   0.620E-02    0.188E-02
RMM:  18    -0.112108716687E+03   -0.76771E-05   -0.72752E-05   178   0.229E-02
   1 F= -.11210872E+03 E0= -.11210690E+03  d E =-.544389E-02
