  31  31   0   0
  0.1706119E+02  0.8087054E-09  0.8087054E-09  0.8087054E-09  0.5000000E-15
  1.000000000000000E-004
  CAR 
 unknown system                          
     12.95003902     -4.98619026  301      7.87233034      1.00000000
     -4.986  0.0000E+00  0.0000E+00
     -4.926  0.0000E+00  0.0000E+00
     -4.867  0.0000E+00  0.0000E+00
     -4.807  0.0000E+00  0.0000E+00
     -4.747  0.0000E+00  0.0000E+00
     -4.687  0.0000E+00  0.0000E+00
     -4.627 -0.3912E-27 -0.2339E-28
     -4.568 -0.4638E-25 -0.2796E-26
     -4.508 -0.4623E-23 -0.2792E-24
     -4.448 -0.3847E-21 -0.2328E-22
     -4.388 -0.2672E-19 -0.1621E-20
     -4.329 -0.1549E-17 -0.9421E-19
     -4.269 -0.7487E-16 -0.4571E-17
     -4.209 -0.3019E-14 -0.1851E-15
     -4.149 -0.9868E-13 -0.6085E-14
     -4.089 -0.2750E-11 -0.1705E-12
     -4.030 -0.6389E-10 -0.3990E-11
     -3.970 -0.1235E-08 -0.7780E-10
     -3.910 -0.1982E-07 -0.1263E-08
     -3.850 -0.2641E-06 -0.1705E-07
     -3.790 -0.2915E-05 -0.1914E-06
     -3.731 -0.2661E-04 -0.1782E-05
     -3.671 -0.2003E-03 -0.1376E-04
     -3.611 -0.1238E-02 -0.8777E-04
     -3.551 -0.6249E-02 -0.4614E-03
     -3.492 -0.2554E-01 -0.1988E-02
     -3.432 -0.8324E-01 -0.6965E-02
     -3.372 -0.2105E+00 -0.1955E-01
     -3.312 -0.3874E+00 -0.4272E-01
     -3.252 -0.4149E+00 -0.6752E-01
     -3.193  0.1685E+00 -0.5744E-01
     -3.133  0.1859E+01  0.5371E-01
     -3.073  0.4581E+01  0.3276E+00
     -3.013  0.7259E+01  0.7616E+00
     -2.953  0.8357E+01  0.1261E+01
     -2.894  0.7158E+01  0.1689E+01
     -2.834  0.4442E+01  0.1955E+01
     -2.774  0.1753E+01  0.2060E+01
     -2.714  0.1193E+00  0.2067E+01
     -2.654 -0.4229E+00  0.2041E+01
     -2.595 -0.3808E+00  0.2019E+01
     -2.535 -0.2077E+00  0.2006E+01
     -2.475 -0.1002E+00  0.2000E+01
     -2.415 -0.9823E-01  0.1994E+01
     -2.356 -0.2134E+00  0.1982E+01
     -2.296 -0.4465E+00  0.1955E+01
     -2.236 -0.6671E+00  0.1915E+01
     -2.176 -0.4412E+00  0.1889E+01
     -2.116  0.9433E+00  0.1945E+01
     -2.057  0.4001E+01  0.2184E+01
     -1.997  0.8355E+01  0.2684E+01
     -1.937  0.1262E+02  0.3438E+01
     -1.877  0.1525E+02  0.4350E+01
     -1.817  0.1567E+02  0.5287E+01
     -1.758  0.1438E+02  0.6147E+01
     -1.698  0.1213E+02  0.6872E+01
     -1.638  0.9358E+01  0.7432E+01
     -1.578  0.6273E+01  0.7807E+01
     -1.519  0.3324E+01  0.8006E+01
     -1.459  0.1103E+01  0.8072E+01
     -1.399 -0.9536E-01  0.8066E+01
     -1.339 -0.4604E+00  0.8038E+01
     -1.279 -0.4368E+00  0.8012E+01
     -1.220 -0.4043E+00  0.7988E+01
     -1.160 -0.5226E+00  0.7957E+01
     -1.100 -0.6641E+00  0.7917E+01
     -1.040 -0.3407E+00  0.7897E+01
     -0.980  0.1177E+01  0.7967E+01
     -0.921  0.4284E+01  0.8223E+01
     -0.861  0.8333E+01  0.8721E+01
     -0.801  0.1173E+02  0.9423E+01
     -0.741  0.1316E+02  0.1021E+02
     -0.681  0.1263E+02  0.1096E+02
     -0.622  0.1116E+02  0.1163E+02
     -0.562  0.9585E+01  0.1220E+02
     -0.502  0.8125E+01  0.1269E+02
     -0.442  0.6790E+01  0.1310E+02
     -0.383  0.5623E+01  0.1343E+02
     -0.323  0.4503E+01  0.1370E+02
     -0.263  0.3199E+01  0.1389E+02
     -0.203  0.1734E+01  0.1400E+02
     -0.143  0.4132E+00  0.1402E+02
     -0.084 -0.5092E+00  0.1399E+02
     -0.024 -0.9585E+00  0.1393E+02
      0.036 -0.7373E+00  0.1389E+02
      0.096  0.6993E+00  0.1393E+02
      0.156  0.3867E+01  0.1416E+02
      0.215  0.8481E+01  0.1467E+02
      0.275  0.1319E+02  0.1546E+02
      0.335  0.1636E+02  0.1644E+02
      0.395  0.1723E+02  0.1747E+02
      0.454  0.1632E+02  0.1844E+02
      0.514  0.1470E+02  0.1932E+02
      0.574  0.1311E+02  0.2010E+02
      0.634  0.1150E+02  0.2079E+02
      0.694  0.9423E+01  0.2136E+02
      0.753  0.6694E+01  0.2176E+02
      0.813  0.3758E+01  0.2198E+02
      0.873  0.1339E+01  0.2206E+02
      0.933 -0.1714E+00  0.2205E+02
      0.993 -0.9497E+00  0.2199E+02
      1.052 -0.1381E+01  0.2191E+02
      1.112 -0.1419E+01  0.2183E+02
      1.172 -0.1851E+00  0.2182E+02
      1.232  0.3660E+01  0.2203E+02
      1.291  0.1066E+02  0.2267E+02
      1.351  0.1929E+02  0.2383E+02
      1.411  0.2606E+02  0.2538E+02
      1.471  0.2772E+02  0.2704E+02
      1.531  0.2363E+02  0.2845E+02
      1.590  0.1651E+02  0.2944E+02
      1.650  0.1055E+02  0.3007E+02
      1.710  0.8553E+01  0.3058E+02
      1.770  0.1019E+02  0.3119E+02
      1.830  0.1268E+02  0.3195E+02
      1.889  0.1326E+02  0.3274E+02
      1.949  0.1105E+02  0.3340E+02
      2.009  0.7177E+01  0.3383E+02
      2.069  0.3399E+01  0.3404E+02
      2.129  0.8431E+00  0.3409E+02
      2.188 -0.3628E+00  0.3406E+02
      2.248 -0.7225E+00  0.3402E+02
      2.308 -0.8048E+00  0.3397E+02
      2.368 -0.8389E+00  0.3392E+02
      2.427 -0.5480E+00  0.3389E+02
      2.487  0.7527E+00  0.3393E+02
      2.547  0.3707E+01  0.3416E+02
      2.607  0.8251E+01  0.3465E+02
      2.667  0.1326E+02  0.3544E+02
      2.726  0.1702E+02  0.3646E+02
      2.786  0.1818E+02  0.3755E+02
      2.846  0.1651E+02  0.3853E+02
      2.906  0.1275E+02  0.3930E+02
      2.966  0.8163E+01  0.3978E+02
      3.025  0.3994E+01  0.4002E+02
      3.085  0.1051E+01  0.4009E+02
      3.145 -0.5762E+00  0.4005E+02
      3.205 -0.1352E+01  0.3997E+02
      3.264 -0.1700E+01  0.3987E+02
      3.324 -0.1334E+01  0.3979E+02
      3.384  0.9289E+00  0.3985E+02
      3.444  0.6426E+01  0.4023E+02
      3.504  0.1515E+02  0.4114E+02
      3.563  0.2475E+02  0.4262E+02
      3.623  0.3133E+02  0.4449E+02
      3.683  0.3204E+02  0.4640E+02
      3.743  0.2709E+02  0.4802E+02
      3.803  0.1948E+02  0.4919E+02
      3.862  0.1283E+02  0.4996E+02
      3.922  0.9036E+01  0.5050E+02
      3.982  0.7684E+01  0.5096E+02
      4.042  0.7041E+01  0.5138E+02
      4.101  0.5681E+01  0.5172E+02
      4.161  0.3401E+01  0.5192E+02
      4.221  0.9280E+00  0.5197E+02
      4.281 -0.8447E+00  0.5192E+02
      4.341 -0.1163E+01  0.5185E+02
      4.400  0.7620E+00  0.5190E+02
      4.460  0.5609E+01  0.5224E+02
      4.520  0.1312E+02  0.5302E+02
      4.580  0.2144E+02  0.5430E+02
      4.640  0.2772E+02  0.5596E+02
      4.699  0.3009E+02  0.5776E+02
      4.759  0.2906E+02  0.5950E+02
      4.819  0.2685E+02  0.6110E+02
      4.879  0.2522E+02  0.6261E+02
      4.939  0.2419E+02  0.6406E+02
      4.998  0.2294E+02  0.6543E+02
      5.058  0.2106E+02  0.6669E+02
      5.118  0.1868E+02  0.6780E+02
      5.178  0.1568E+02  0.6874E+02
      5.237  0.1177E+02  0.6944E+02
      5.297  0.7227E+01  0.6988E+02
      5.357  0.3027E+01  0.7006E+02
      5.417  0.1609E+00  0.7007E+02
      5.477 -0.9898E+00  0.7001E+02
      5.536 -0.4843E+00  0.6998E+02
      5.596  0.1523E+01  0.7007E+02
      5.656  0.4611E+01  0.7035E+02
      5.716  0.7748E+01  0.7081E+02
      5.776  0.9602E+01  0.7138E+02
      5.835  0.9464E+01  0.7195E+02
      5.895  0.7828E+01  0.7242E+02
      5.955  0.6042E+01  0.7278E+02
      6.015  0.5361E+01  0.7310E+02
      6.074  0.6108E+01  0.7346E+02
      6.134  0.7487E+01  0.7391E+02
      6.194  0.8307E+01  0.7441E+02
      6.254  0.7966E+01  0.7488E+02
      6.314  0.6654E+01  0.7528E+02
      6.373  0.4796E+01  0.7557E+02
      6.433  0.2793E+01  0.7574E+02
      6.493  0.1449E+01  0.7582E+02
      6.553  0.2140E+01  0.7595E+02
      6.613  0.5861E+01  0.7630E+02
      6.672  0.1187E+02  0.7701E+02
      6.732  0.1769E+02  0.7807E+02
      6.792  0.2111E+02  0.7933E+02
      6.852  0.2232E+02  0.8066E+02
      6.912  0.2350E+02  0.8207E+02
      6.971  0.2607E+02  0.8363E+02
      7.031  0.2878E+02  0.8535E+02
      7.091  0.2878E+02  0.8707E+02
      7.151  0.2440E+02  0.8853E+02
      7.210  0.1669E+02  0.8953E+02
      7.270  0.8527E+01  0.9004E+02
      7.330  0.2506E+01  0.9019E+02
      7.390 -0.5771E+00  0.9015E+02
      7.450 -0.1515E+01  0.9006E+02
      7.509 -0.1508E+01  0.8997E+02
      7.569 -0.1151E+01  0.8990E+02
      7.629 -0.2009E+00  0.8989E+02
      7.689  0.1972E+01  0.9001E+02
      7.749  0.5684E+01  0.9035E+02
      7.808  0.1055E+02  0.9098E+02
      7.868  0.1578E+02  0.9192E+02
      7.928  0.2082E+02  0.9317E+02
      7.988  0.2575E+02  0.9471E+02
      8.047  0.3086E+02  0.9655E+02
      8.107  0.3571E+02  0.9869E+02
      8.167  0.3844E+02  0.1010E+03
      8.227  0.3670E+02  0.1032E+03
      8.287  0.2993E+02  0.1050E+03
      8.346  0.2049E+02  0.1062E+03
      8.406  0.1209E+02  0.1069E+03
      8.466  0.6905E+01  0.1073E+03
      8.526  0.4578E+01  0.1076E+03
      8.586  0.3449E+01  0.1078E+03
      8.645  0.2272E+01  0.1079E+03
      8.705  0.8335E+00  0.1080E+03
      8.765 -0.4685E+00  0.1080E+03
      8.825 -0.1112E+01  0.1079E+03
      8.884 -0.4662E+00  0.1079E+03
      8.944  0.2208E+01  0.1080E+03
      9.004  0.7150E+01  0.1084E+03
      9.064  0.1331E+02  0.1092E+03
      9.124  0.1861E+02  0.1103E+03
      9.183  0.2158E+02  0.1116E+03
      9.243  0.2264E+02  0.1130E+03
      9.303  0.2327E+02  0.1144E+03
      9.363  0.2399E+02  0.1158E+03
      9.423  0.2361E+02  0.1172E+03
      9.482  0.2066E+02  0.1185E+03
      9.542  0.1515E+02  0.1194E+03
      9.602  0.8684E+01  0.1199E+03
      9.662  0.3216E+01  0.1201E+03
      9.722 -0.1170E+00  0.1201E+03
      9.781 -0.1097E+01  0.1200E+03
      9.841  0.1380E+00  0.1200E+03
      9.901  0.3307E+01  0.1202E+03
      9.961  0.7521E+01  0.1207E+03
     10.020  0.1099E+02  0.1213E+03
     10.080  0.1186E+02  0.1220E+03
     10.140  0.9675E+01  0.1226E+03
     10.200  0.5797E+01  0.1229E+03
     10.260  0.2226E+01  0.1231E+03
     10.319  0.1302E+00  0.1231E+03
     10.379 -0.5573E+00  0.1231E+03
     10.439 -0.5108E+00  0.1230E+03
     10.499 -0.3100E+00  0.1230E+03
     10.559 -0.2084E+00  0.1230E+03
     10.618 -0.2222E+00  0.1230E+03
     10.678 -0.2220E+00  0.1230E+03
     10.738  0.4520E-01  0.1230E+03
     10.798  0.8482E+00  0.1230E+03
     10.857  0.2185E+01  0.1232E+03
     10.917  0.3552E+01  0.1234E+03
     10.977  0.4178E+01  0.1236E+03
     11.037  0.3656E+01  0.1238E+03
     11.097  0.2327E+01  0.1240E+03
     11.156  0.9580E+00  0.1240E+03
     11.216  0.9760E-01  0.1240E+03
     11.276 -0.2052E+00  0.1240E+03
     11.336 -0.1957E+00  0.1240E+03
     11.396 -0.1073E+00  0.1240E+03
     11.455 -0.4271E-01  0.1240E+03
     11.515 -0.1318E-01  0.1240E+03
     11.575 -0.3242E-02  0.1240E+03
     11.635 -0.6453E-03  0.1240E+03
     11.695 -0.1049E-03  0.1240E+03
     11.754 -0.1400E-04  0.1240E+03
     11.814 -0.1541E-05  0.1240E+03
     11.874 -0.1402E-06  0.1240E+03
     11.934 -0.1057E-07  0.1240E+03
     11.993 -0.6610E-09  0.1240E+03
     12.053 -0.3435E-10  0.1240E+03
     12.113 -0.1482E-11  0.1240E+03
     12.173 -0.5571E-13  0.1240E+03
     12.233  0.0000E+00  0.1240E+03
     12.292  0.0000E+00  0.1240E+03
     12.352  0.0000E+00  0.1240E+03
     12.412  0.0000E+00  0.1240E+03
     12.472  0.0000E+00  0.1240E+03
     12.532  0.0000E+00  0.1240E+03
     12.591  0.0000E+00  0.1240E+03
     12.651  0.0000E+00  0.1240E+03
     12.711  0.0000E+00  0.1240E+03
     12.771  0.0000E+00  0.1240E+03
     12.830  0.0000E+00  0.1240E+03
     12.890  0.0000E+00  0.1240E+03
     12.950  0.0000E+00  0.1240E+03
