   31   31    1    1
  0.1706119E+02  0.8087054E-09  0.8087054E-09  0.8087054E-09  0.5000000E-15
  1.000000000000000E-004
  CAR 
 unknown system                          
   92    2   62
 
  0.2500000E+00  0.2500000E+00  0.2500000E+00  0.5000000E+00
   1       -2.983233
   2       -1.960521
   3       -1.878779
   4       -1.641907
   5       -0.812004
   6       -0.760806
   7       -0.354119
   8        0.257104
   9        0.321720
  10        0.532409
  11        0.616114
  12        1.344773
  13        1.363777
  14        1.405830
  15        1.539354
  16        1.813973
  17        1.940226
  18        2.700809
  19        2.708545
  20        2.904536
  21        3.530260
  22        3.591622
  23        3.628808
  24        3.677098
  25        3.736118
  26        4.050605
  27        4.530830
  28        4.558070
  29        4.644981
  30        4.807246
  31        4.864773
  32        4.870538
  33        4.929244
  34        5.110677
  35        5.206444
  36        5.726735
  37        5.892998
  38        6.355645
  39        6.709938
  40        6.775663
  41        6.786524
  42        6.944287
  43        6.989341
  44        7.094130
  45        7.149679
  46        7.789442
  47        7.887606
  48        8.006436
  49        8.036168
  50        8.162214
  51        8.198590
  52        8.207167
  53        8.373794
  54        8.536720
  55        9.056664
  56        9.137233
  57        9.187976
  58        9.354358
  59        9.371839
  60        9.515392
  61       10.034386
  62       10.950039
 
 -0.2500000E+00  0.2500000E+00  0.2500000E+00  0.5000000E+00
   1       -2.986190
   2       -1.950794
   3       -1.815518
   4       -1.722357
   5       -0.825478
   6       -0.609228
   7       -0.548866
   8        0.261457
   9        0.398549
  10        0.441397
  11        0.698993
  12        1.393440
  13        1.428089
  14        1.492828
  15        1.493413
  16        1.768082
  17        1.842628
  18        2.621419
  19        2.773102
  20        2.839656
  21        3.537742
  22        3.587867
  23        3.634071
  24        3.681141
  25        3.811838
  26        3.963120
  27        4.598043
  28        4.651432
  29        4.677795
  30        4.699006
  31        4.716126
  32        4.949436
  33        4.973431
  34        5.059531
  35        5.175016
  36        5.746282
  37        6.117526
  38        6.177550
  39        6.706213
  40        6.746812
  41        6.917668
  42        7.023740
  43        7.032928
  44        7.070390
  45        7.141252
  46        7.837813
  47        7.956636
  48        7.994904
  49        8.066878
  50        8.149390
  51        8.171814
  52        8.188062
  53        8.216832
  54        8.264176
  55        9.095347
  56        9.146802
  57        9.272791
  58        9.378000
  59        9.408164
  60        9.487754
  61        9.995676
  62       10.078162
