 vasp.5.2.2 15Apr09 complex 
 executed on             LinuxIFC date 2014.04.24  12:42:23
 running on    1 nodes
 distr:  one band on    1 nodes,    1 groups


--------------------------------------------------------------------------------------------------------


 INCAR:
 POTCAR:   PAW_PBE Mg 05Jan2001                   
 POTCAR:   PAW_PBE Al 04Jan2001                   
 POTCAR:   PAW_PBE Mg 05Jan2001                   
   VRHFIN =Mg: s2p0                                                             
   LEXCH  = PE                                                                  
   EATOM  =    23.0029 eV,    1.6907 Ry                                         
                                                                                
   TITEL  = PAW_PBE Mg 05Jan2001                                                
   LULTRA =        F    use ultrasoft PP ?                                      
   IUNSCR =        1    unscreen: 0-lin 1-nonlin 2-no                           
   RPACOR =    2.000    partial core radius                                     
   POMASS =   24.305; ZVAL   =    2.000    mass and valenz                      
   RCORE  =    2.000    outmost cutoff radius                                   
   RWIGS  =    2.880; RWIGS  =    1.524    wigner-seitz radius (au A)           
   ENMAX  =  210.012; ENMIN  =  157.509 eV                                      
   ICORE  =        2    local potential                                         
   LCOR   =        T    correct aug charges                                     
   LPAW   =        T    paw PP                                                  
   EAUG   =  274.554                                                            
   DEXC   =    -.136                                                            
   RMAX   =    3.182    core radius for proj-oper                               
   RAUG   =    1.300    factor for augmentation sphere                          
   RDEP   =    2.025    radius for radial grids                                 
   QCUT   =   -3.929; QGAM   =    7.858    optimization parameters              
                                                                                
   Description                                                                  
     l     E      TYP  RCUT    TYP  RCUT                                        
     0   .000     23  2.000                                                     
     0  2.000     23  2.000                                                     
     1   .000     23  2.000                                                     
     1  2.000     23  2.000                                                     
     2   .000     23  2.000                                                     
  local pseudopotential read in
  partial core-charges read in
  atomic valenz-charges read in
  non local Contribution for L=           0  read in
    real space projection operators read in
  non local Contribution for L=           0  read in
    real space projection operators read in
  non local Contribution for L=           1  read in
    real space projection operators read in
  non local Contribution for L=           1  read in
    real space projection operators read in
    PAW grid and wavefunctions read in
 
   number of l-projection  operators is LMAX  =           4
   number of lm-projection operators is LMMAX =           8
 
 POTCAR:   PAW_PBE Al 04Jan2001                   
   VRHFIN =Al: s2p1                                                             
   LEXCH  = PE                                                                  
   EATOM  =    53.5387 eV,    3.9350 Ry                                         
                                                                                
   TITEL  = PAW_PBE Al 04Jan2001                                                
   LULTRA =        F    use ultrasoft PP ?                                      
   IUNSCR =        1    unscreen: 0-lin 1-nonlin 2-no                           
   RPACOR =    1.500    partial core radius                                     
   POMASS =   26.982; ZVAL   =    3.000    mass and valenz                      
   RCORE  =    1.900    outmost cutoff radius                                   
   RWIGS  =    2.650; RWIGS  =    1.402    wigner-seitz radius (au A)           
   ENMAX  =  240.300; ENMIN  =  180.225 eV                                      
   ICORE  =        2    local potential                                         
   LCOR   =        T    correct aug charges                                     
   LPAW   =        T    paw PP                                                  
   EAUG   =  291.052                                                            
   DEXC   =    -.041                                                            
   RMAX   =    2.974    core radius for proj-oper                               
   RAUG   =    1.300    factor for augmentation sphere                          
   RDEP   =    1.966    radius for radial grids                                 
   QCUT   =   -4.203; QGAM   =    8.405    optimization parameters              
                                                                                
   Description                                                                  
     l     E      TYP  RCUT    TYP  RCUT                                        
     0   .000     23  1.900                                                     
     0   .000     23  1.900                                                     
     1   .000     23  1.900                                                     
     1  1.000     23  1.900                                                     
     2   .000      7  1.900                                                     
  local pseudopotential read in
  partial core-charges read in
  atomic valenz-charges read in
  non local Contribution for L=           0  read in
    real space projection operators read in
  non local Contribution for L=           0  read in
    real space projection operators read in
  non local Contribution for L=           1  read in
    real space projection operators read in
  non local Contribution for L=           1  read in
    real space projection operators read in
    PAW grid and wavefunctions read in
 
   number of l-projection  operators is LMAX  =           4
   number of lm-projection operators is LMMAX =           8
 

 ----------------------------------------------------------------------------- 
|                                                                             |
|  ADVICE TO THIS USER RUNNING 'VASP/VAMP'   (HEAR YOUR MASTER'S VOICE ...):  |
|                                                                             |
|      You have a (more or less) 'large supercell' and for larger cells       |
|      it might be more efficient to use real space projection operators      |
|      So try LREAL= Auto  in the INCAR   file.                               |
|      Mind: If you want to do a very accurate calculations keep the          |
|      reciprocal projection scheme          (i.e. LREAL=.FALSE.)             |
|                                                                             |
 ----------------------------------------------------------------------------- 

 PAW_PBE Mg 05Jan2001                   :
 energy of atom  1       EATOM=  -23.0029
 kinetic energy error for atom=    0.0002 (will be added to EATOM!!)
 PAW_PBE Al 04Jan2001                   :
 energy of atom  2       EATOM=  -53.5387
 kinetic energy error for atom=    0.0011 (will be added to EATOM!!)
 
 
 POSCAR: Mg1 Al30                                
  positions in direct lattice
  No initial velocities read in
 exchange correlation table for  LEXCH =        8
   RHO(1)=    0.500       N(1)  =     2000
   RHO(2)=  100.500       N(2)  =     4000

 VTST: version 2.03d, (02/18/09)

 CHAIN: initializing optimizer
 
 OPT: Using VASP Dynamics algorithm
 CHAIN: Read ICHAIN            0
 


--------------------------------------------------------------------------------------------------------


 ion  position               nearest neighbor table
   1  0.375  0.500  0.375-   9 2.70  16 2.70  19 2.70  27 2.70  26 3.17  14 3.17  13 3.17  25 3.17

   2  0.001  0.000  0.001-   7 2.78  18 2.78   3 2.81  15 2.83   8 2.83  20 2.83  28 2.83  22 2.88
                             5 2.88  11 2.88  12 2.88   4 2.88
   3  0.247  0.000  0.247-   2 2.81   9 2.83  16 2.83  19 2.83  27 2.83  12 2.85   5 2.85   4 2.85
                            11 2.85  21 2.93  17 2.94   6 2.94
   4  0.249  0.256  0.005-   5 2.80  13 2.82  10 2.83  18 2.84   3 2.85   9 2.85  26 2.87   2 2.88
                            20 2.88   6 2.90  24 2.92
   5  0.005  0.256  0.249-   4 2.80  25 2.82  10 2.83   7 2.84   3 2.85  19 2.85  14 2.87   2 2.88
                             8 2.88  17 2.90  23 2.92
   6  0.500  0.000  0.986-  18 2.71  16 2.75   9 2.75  22 2.78  24 2.84  31 2.84  15 2.86   8 2.86
                             4 2.90  11 2.90   3 2.94   7 3.01
   7  0.764  0.000  0.250-  17 2.71  16 2.75   9 2.75   2 2.78   5 2.84  12 2.84   8 2.86  15 2.86
                            23 2.90  30 2.90  21 2.94   6 3.01
   8  0.754  0.247  0.996-   9 2.77  20 2.78   2 2.83  22 2.83  29 2.85  10 2.85   6 2.86   7 2.86
                            24 2.88   5 2.88  13 2.90  14 2.90
   9  0.511  0.228  0.239-   1 2.70   7 2.75   6 2.75   8 2.77  21 2.83   3 2.83  23 2.85   4 2.85
                            14 2.91  13 2.91  19 3.12
  10  1.000  0.500  1.000-   4 2.83   5 2.83  11 2.83  12 2.83   8 2.85  15 2.85  20 2.85  28 2.85
                            29 2.86  14 2.88  26 2.88
  11  0.249  0.744  0.005-  12 2.80  13 2.82  10 2.83  18 2.84   3 2.85  16 2.85  26 2.87   2 2.88
                            28 2.88   6 2.90  31 2.92
  12  0.005  0.744  0.249-  11 2.80  25 2.82  10 2.83   7 2.84   3 2.85  27 2.85  14 2.87   2 2.88
                            15 2.88  17 2.90  30 2.92
  13  0.499  0.500  0.003-   4 2.82  11 2.82  14 2.84  24 2.87  31 2.87  26 2.88  29 2.88   8 2.90
                            15 2.90   9 2.91  16 2.91   1 3.17
  14  0.747  0.500  0.251-  23 2.82  30 2.82  13 2.84  12 2.87   5 2.87  25 2.88  10 2.88  15 2.90
                             8 2.90  16 2.91   9 2.91   1 3.17
  15  0.754  0.753  0.996-  16 2.77  28 2.78  22 2.83   2 2.83  29 2.85  10 2.85   6 2.86   7 2.86
                            31 2.88  12 2.88  13 2.90  14 2.90
  16  0.511  0.772  0.239-   1 2.70   7 2.75   6 2.75  15 2.77  21 2.83   3 2.83  30 2.85  11 2.85
                            14 2.91  13 2.91  27 3.12
  17  0.986  0.000  0.500-   7 2.71  19 2.75  27 2.75  22 2.78  23 2.84  30 2.84  28 2.86  20 2.86
                            12 2.90   5 2.90   3 2.94  18 3.01
  18  0.250  0.000  0.764-   6 2.71  19 2.75  27 2.75   2 2.78   4 2.84  11 2.84  20 2.86  28 2.86
                            24 2.90  31 2.90  21 2.94  17 3.01
  19  0.239  0.228  0.511-   1 2.70  18 2.75  17 2.75  20 2.77  21 2.83   3 2.83  24 2.85   5 2.85
                            26 2.91  25 2.91   9 3.12
  20  0.996  0.247  0.754-  19 2.77   8 2.78   2 2.83  22 2.83  29 2.85  10 2.85  17 2.86  18 2.86
                            23 2.88   4 2.88  25 2.90  26 2.90
  21  0.503  0.000  0.503-  22 2.81  16 2.83   9 2.83  19 2.83  27 2.83  24 2.85  23 2.85  30 2.85
                            31 2.85   3 2.93  18 2.94   7 2.94
  22  0.749  0.000  0.749-   6 2.78  17 2.78  21 2.81   8 2.83  20 2.83  15 2.83  28 2.83   2 2.88
                            24 2.88  23 2.88  30 2.88  31 2.88
  23  0.745  0.256  0.501-  24 2.80  14 2.82  29 2.83  17 2.84  21 2.85   9 2.85  25 2.87  22 2.88
                            20 2.88   7 2.90   5 2.92
  24  0.501  0.256  0.745-  23 2.80  26 2.82  29 2.83   6 2.84  21 2.85  19 2.85  13 2.87  22 2.88
                             8 2.88  18 2.90   4 2.92
  25  0.003  0.500  0.499-   5 2.82  12 2.82  26 2.84  23 2.87  30 2.87  14 2.88  29 2.88  20 2.90
                            28 2.90  27 2.91  19 2.91   1 3.17
  26  0.251  0.500  0.747-  24 2.82  31 2.82  25 2.84  11 2.87   4 2.87  13 2.88  10 2.88  28 2.90
                            20 2.90  19 2.91  27 2.91   1 3.17
  27  0.239  0.772  0.511-   1 2.70  18 2.75  17 2.75  28 2.77  21 2.83   3 2.83  31 2.85  12 2.85
                            26 2.91  25 2.91  16 3.12
  28  0.996  0.753  0.754-  27 2.77  15 2.78  22 2.83   2 2.83  29 2.85  10 2.85  17 2.86  18 2.86
                            30 2.88  11 2.88  25 2.90  26 2.90
  29  0.750  0.500  0.750-  23 2.83  30 2.83  24 2.83  31 2.83  15 2.85  28 2.85  20 2.85   8 2.85
                            10 2.86  25 2.88  13 2.88
  30  0.745  0.744  0.501-  31 2.80  14 2.82  29 2.83  17 2.84  21 2.85  16 2.85  25 2.87  22 2.88
                            28 2.88   7 2.90  12 2.92
  31  0.501  0.744  0.745-  30 2.80  26 2.82  29 2.83   6 2.84  21 2.85  27 2.85  13 2.87  22 2.88
                            15 2.88  18 2.90  11 2.92
 
  LATTYP: Found a simple cubic cell.
 ALAT       =     8.0870540000
  
  Lattice vectors:
  
 A1 = (   8.0870540000,   0.0000000000,   0.0000000000)
 A2 = (   0.0000000000,   8.0870540000,   0.0000000000)
 A3 = (   0.0000000000,   0.0000000000,   8.0870540000)
 Subroutine PRICEL returns:
 Original cell was already a primitive cell.
 

Analysis of symmetry for initial positions (statically):

 Routine SETGRP: Setting up the symmetry group for a 
 simple cubic supercell.


 Subroutine GETGRP returns: Found  8 space group operations
 (whereof  4 operations were pure point group operations)
 out of a pool of 48 trial point group operations.


The static configuration has the point symmetry C_2v.
 The point group associated with its full space group is D_2h.

Analysis of symmetry for dynamics (positions and initial velocities):

 Subroutine DYNSYM returns: Found  8 space group operations
 (whereof  4 operations were pure point group operations)
 out of a pool of  8 trial space group operations
 (whereof  4 operations were pure point group operations)
 and found also     1 'primitive' translations


The dynamic configuration has the point symmetry C_2v.
 The point group associated with its full space group is D_2h.
 
 
 KPOINTS: Automatic kpoint scheme                 

Automatic generation of k-mesh.
 
 Subroutine IBZKPT returns following result:
 ===========================================
 
 Found      2 irreducible k-points:
 
 Following reciprocal coordinates:
            Coordinates               Weight
  0.250000  0.250000  0.250000      4.000000
 -0.250000  0.250000  0.250000      4.000000
 
 Following cartesian coordinates:
            Coordinates               Weight
  0.030914  0.030914  0.030914      4.000000
 -0.030914  0.030914  0.030914      4.000000
 


--------------------------------------------------------------------------------------------------------




 Dimension of arrays:
   k-points           NKPTS =      2   k-points in BZ     NKDIM =      2   number of bands    NBANDS=     62
   number of dos      NEDOS =    301   number of ions     NIONS =     31
   non local maximal  LDIM  =      4   non local SUM 2l+1 LMDIM =      8
   total plane-waves  NPLWV = 110592
   max r-space proj   IRMAX =      1   max aug-charges    IRDMAX=   9081
   dimension x,y,z NGX =    48 NGY =   48 NGZ =   48
   dimension x,y,z NGXF=    96 NGYF=   96 NGZF=   96
   support grid    NGXF=    96 NGYF=   96 NGZF=   96
   ions per type =               1  30
 NGX,Y,Z   is equivalent  to a cutoff of   9.87,  9.87,  9.87 a.u.
 NGXF,Y,Z  is equivalent  to a cutoff of  19.73, 19.73, 19.73 a.u.


 I would recommend the setting:
   dimension x,y,z NGX =    46 NGY =   46 NGZ =   46
 SYSTEM =  unknown system                          
 POSCAR =  Mg1 Al30                                

 Startparameter for this run:
   NWRITE =      2    write-flag & timer
   PREC   = accura    medium, high low
   ISTART =      0    job   : 0-new  1-cont  2-samecut
   ICHARG =      2    charge: 1-file 2-atom 10-const
   ISPIN  =      1    spin polarized calculation?
   LNONCOLLINEAR =      F non collinear calculations
   LSORBIT =      F    spin-orbit coupling
   INIWAV =      1    electr: 0-lowe 1-rand  2-diag
   LASPH  =      F    aspherical Exc in radial PAW
   METAGGA=      F    non-selfconsistent MetaGGA calc.

 Electronic Relaxation 1
   ENCUT  =  300.0 eV  22.05 Ry    4.70 a.u.  11.42 11.42 11.42*2*pi/ulx,y,z
   ENINI  =  300.0     initial cutoff
   ENAUG  =  291.1 eV  augmentation charge cutoff
   NELM   =     60;   NELMIN=  2; NELMDL=-12     # of ELM steps 
   EDIFF  = 0.1E-03   stopping-criterion for ELM
   LREAL  =      F    real-space projection
   LCOMPAT=      F    compatible to vasp.4.4
   LREAL_COMPAT= F    compatible to vasp.4.5.1-3
   GGA_COMPAT  = T    GGA compatible to vasp.4.4-vasp.4.6
   LMAXPAW     = -100 max onsite density
   LMAXMIX     =    2 max onsite mixed and CHGCAR
   VOSKOWN=      0    Vosko Wilk Nusair interpolation
   ROPT   =    0.00000   0.00000
 Ionic relaxation
   EDIFFG = 0.5E-01   stopping-criterion for IOM
   NSW    =      0    number of steps for IOM
   NBLOCK =      1;   KBLOCK =      1    inner block; outer block 
   IBRION =     -1    ionic relax: 0-MD 1-quasi-New 2-CG
   NFREE  =      0    steps in history (QN), initial steepest desc. (CG)
   ISIF   =      2    stress and relaxation
   IWAVPR =     10    prediction:  0-non 1-charg 2-wave 3-comb
   ISYM   =      2    0-nonsym 1-usesym 2-fastsym
   LCORR  =      T    Harris-Foulkes like correction to forces

   POTIM  = 0.5000    time-step for ionic-motion
   TEIN   =    0.0    initial temperature
   TEBEG  =    0.0;   TEEND  =   0.0 temperature during run
   SMASS  =  -3.00    Nose mass-parameter (am)
   estimated Nose-frequenzy (Omega)   =  0.10E-29 period in steps =****** mass=  -0.149E-26a.u.
   NPACO  =    256;   APACO  = 16.0  distance and # of slots for P.C.
   PSTRESS=    0.0 pullay stress

  Mass of Ions in am
   POMASS =  24.30 26.98
  Ionic Valenz
   ZVAL   =   2.00  3.00
  Atomic Wigner-Seitz radii
   RWIGS  =  -1.00 -1.00
   NELECT =      92.0000    total number of electrons
   NUPDOWN=      -1.0000    fix difference up-down

 DOS related values:
   EMIN   =  10.00;   EMAX   =-10.00  energy-range for DOS
   EFERMI =   0.00
   ISMEAR =     1;   SIGMA  =   0.20  broadening in eV -4-tet -1-fermi 0-gaus

 Electronic relaxation 2 (details)
   IALGO  =     48    algorithm
   LDIAG  =      T    sub-space diagonalisation
   IMIX   =      4    mixing-type and parameters
     AMIX     =   0.40;   BMIX     =  1.00
     AMIX_MAG =   1.60;   BMIX_MAG =  1.00
     AMIN     =   0.10
     WC   =   100.;   INIMIX=   1;  MIXPRE=   1

 Intra band minimization:
   WEIMIN = 0.0000     energy-eigenvalue tresh-hold
   EBREAK =  0.40E-06  absolut break condition
   DEPER  =   0.30     relativ break condition  

   TIME   =   0.40     timestep for ELM

  volume/ion in A,a.u.               =      17.06       115.13
  Fermi-wavevector in a.u.,A,eV,Ry     =   0.913862  1.726948 11.362811  0.835143
  Thomas-Fermi vector in A             =   2.038422
 
 Write flags
   LWAVE  =      F    write WAVECAR
   LCHARG =      F    write CHGCAR
   LVTOT  =      F    write LOCPOT, local potential
   LELF   =      F    write electronic localiz. function (ELF)
   LORBIT =      0    0 simple, 1 ext, 2 COOP (PROOUT)


 Dipole corrections
   LMONO  =      F    monopole corrections only (constant potential shift)
   LDIPOL =      F    correct potential (dipole corrections)
   IDIPOL =      0    1-x, 2-y, 3-z, 4-all directions 
   EPSILON=  1.0000000 bulk dielectric constant

 Exchange correlation treatment:
   GGA     =    --    GGA type
   LEXCH   =     8    internal setting for exchange type
   VOSKOWN=      0    Vosko Wilk Nusair interpolation
   LHFCALC =     F    Hartree Fock is set to
   LHFONE  =     F    Hartree Fock one center treatment
   AEXX    =    0.0000 exact exchange contribution

 Linear response parameters
   LEPSILON=     F    determine dielectric tensor
   LRPA    =     F    only Hartree local field effects (RPA)
   LNABLA  =     F    use nabla operator in PAW spheres
   LVEL    =     F    velocity operator in full k-point grid
   LINTERFAST=   F  fast interpolation
   KINTER  =     0    interpolate to denser k-point grid
   CSHIFT  =0.1000    complex shift for real part using Kramers Kronig
   OMEGAMAX=  -1.0    maximum frequency

 Orbital magnetization related:
   ORBITALMAG=     F  switch on orbital magnetization
   LCHIMAG   =     F  perturbation theory with respect to B field



--------------------------------------------------------------------------------------------------------


 Static calculation
 charge density and potential will be updated during run
 non-spin polarized calculation
 RMM-DIIS sequential band-by-band
 perform sub-space diagonalisation
    before iterative eigenvector-optimisation
 modified Broyden-mixing scheme, WC =      100.0
 initial mixing is a Kerker type mixing with AMIX =  0.4000 and BMIX =      1.0000
 Hartree-type preconditioning will be used
 using additional bands           16
 reciprocal scheme for non local part
 use partial core corrections
 calculate Harris-corrections to forces 
   (improved forces if not selfconsistent)
 use gradient corrections 
 use of overlap-Matrix (Vanderbilt PP)
 Methfessel and Paxton  Order N= 1 SIGMA  =   0.20


--------------------------------------------------------------------------------------------------------


  energy-cutoff  :      300.00
  volume of cell :      528.90
      direct lattice vectors                 reciprocal lattice vectors
     8.087054000  0.000000000  0.000000000     0.123654423  0.000000000  0.000000000
     0.000000000  8.087054000  0.000000000     0.000000000  0.123654423  0.000000000
     0.000000000  0.000000000  8.087054000     0.000000000  0.000000000  0.123654423

  length of vectors
     8.087054000  8.087054000  8.087054000     0.123654423  0.123654423  0.123654423


 
 k-points in units of 2pi/SCALE and weight: Automatic kpoint scheme                 
   0.03091361  0.03091361  0.03091361       0.500
  -0.03091361  0.03091361  0.03091361       0.500
 
 k-points in reciprocal lattice and weights: Automatic kpoint scheme                 
   0.25000000  0.25000000  0.25000000       0.500
  -0.25000000  0.25000000  0.25000000       0.500
 
 position of ions in fractional coordinates (direct lattice) 
   0.37499900  0.50000000  0.37499900
   0.00088900  0.00000000  0.00088900
   0.24686700  0.00000000  0.24686700
   0.24947100  0.25554000  0.00484700
   0.00484700  0.25554000  0.24947100
   0.50022900  0.00000000  0.98625600
   0.76374400  0.00000000  0.24977200
   0.75355400  0.24727200  0.99644500
   0.51143800  0.22809400  0.23856300
   0.99997000  0.50000000  0.99997000
   0.24947100  0.74446000  0.00484700
   0.00484700  0.74446000  0.24947100
   0.49877100  0.50000000  0.00321300
   0.74678500  0.50000000  0.25123200
   0.75355400  0.75272800  0.99644500
   0.51143800  0.77190600  0.23856300
   0.98625600  0.00000000  0.50022900
   0.24977200  0.00000000  0.76374400
   0.23856300  0.22809400  0.51143800
   0.99644500  0.24727200  0.75355400
   0.50313300  0.00000000  0.50313300
   0.74911000  0.00000000  0.74911000
   0.74515300  0.25554000  0.50052900
   0.50052900  0.25554000  0.74515300
   0.00321300  0.50000000  0.49877100
   0.25123200  0.50000000  0.74678500
   0.23856300  0.77190600  0.51143800
   0.99644500  0.75272800  0.75355400
   0.75003200  0.50000000  0.75003200
   0.74515300  0.74446000  0.50052900
   0.50052900  0.74446000  0.74515300
 
 position of ions in cartesian coordinates  (Angst):
   3.03263716  4.04352700  3.03263716
   0.00718939  0.00000000  0.00718939
   1.99642676  0.00000000  1.99642676
   2.01748545  2.06656578  0.03919795
   0.03919795  2.06656578  2.01748545
   4.04537894  0.00000000  7.97590553
   6.17643897  0.00000000  2.01991965
   6.09403189  1.99970202  8.05830452
   4.13602672  1.84460850  1.92927186
   8.08681139  4.04352700  8.08681139
   2.01748545  6.02048822  0.03919795
   0.03919795  6.02048822  2.01748545
   4.03358801  4.04352700  0.02598370
   6.03929062  4.04352700  2.03172675
   6.09403189  6.08735198  8.05830452
   4.13602672  6.24244550  1.92927186
   7.97590553  0.00000000  4.04537894
   2.01991965  0.00000000  6.17643897
   1.92927186  1.84460850  4.13602672
   8.05830452  1.99970202  6.09403189
   4.06886374  0.00000000  4.06886374
   6.05809302  0.00000000  6.05809302
   6.02609255  2.06656578  4.04780505
   4.04780505  2.06656578  6.02609255
   0.02598370  4.04352700  4.03358801
   2.03172675  4.04352700  6.03929062
   1.92927186  6.24244550  4.13602672
   8.05830452  6.08735198  6.09403189
   6.06554929  4.04352700  6.06554929
   6.02609255  6.02048822  4.04780505
   4.04780505  6.02048822  6.02609255
 


--------------------------------------------------------------------------------------------------------


 k-point  1 :  0.25000.25000.2500  plane waves:    6238
 k-point  2 :  -.25000.25000.2500  plane waves:    6238

 maximum and minimum number of plane-waves per node :    6238   6238

 maximum number of plane-waves:    6238
 maximal index in each direction: 
   IXMAX= 11   IYMAX= 11   IZMAX= 11
   IXMIN=-11   IYMIN=-11   IZMIN=-11

 NGX is ok and might be reduce to  46
 NGY is ok and might be reduce to  46
 NGZ is ok and might be reduce to  46

 serial   3D FFT for wavefunctions
 parallel 3D FFT for charge:
    minimum data exchange during FFTs selected (reduces bandwidth)


 total amount of memory used by VASP on root node 133132. kBytes
========================================================================

   base      :    30000. kBytes
   nonl-proj :     4690. kBytes
   fftplans  :    30736. kBytes
   grid      :    54743. kBytes
   one-center:       95. kBytes
   wavefun   :    12868. kBytes
 
 Broyden mixing: mesh for mixing (old mesh)
   NGX = 23   NGY = 23   NGZ = 23
  (NGX  = 96   NGY  = 96   NGZ  = 96)
  gives a total of  12167 points

 initial charge density was supplied:
 charge density of overlapping atoms calculated
 number of electron   92.0000000 magnetization 
 keeping initial charge density in first step


--------------------------------------------------------------------------------------------------------


 Maximum index for augmentation-charges         8601 (set IRDMAX)


--------------------------------------------------------------------------------------------------------


 First call to EWALD:  gamma=   0.219
 Maximum number of real-space cells 3x 3x 3
 Maximum number of reciprocal cells 3x 3x 3

    FEWALD:  cpu time    0.07: real time    0.02
   RESPFUN:  cpu time    0.01: real time    0.00


----------------------------------------- Iteration    1(   1)  ---------------------------------------


    POTLOK:  cpu time    1.82: real time    1.78
    SETDIJ:  cpu time    0.15: real time    0.15
    EDDIAG:  cpu time    4.66: real time    2.96
  RMM-DIIS:  cpu time   21.35: real time    6.81
    ORTHCH:  cpu time    0.33: real time    0.08
       DOS:  cpu time    0.00: real time    0.00
    --------------------------------------------
      LOOP:  cpu time   28.32: real time   11.79

 eigenvalue-minimisations  :   124
 total energy-change (2. order) : 0.3001105E+03  (-0.1698962E+04)
 number of electron   92.0000000 magnetization 
 augmentation part    92.0000000 magnetization 

 Free energy of the ion-electron system (eV)
  ---------------------------------------------------
  alpha Z        PSCENC =        -7.38312591
  Ewald energy   TEWEN  =     -2176.44036747
  -1/2 Hartree   DENC   =       -27.67285033
  -exchange  EXHF       =         0.00000000
  -V(xc)+E(xc)   XCENC  =      -796.31408595
  PAW double counting   =      1078.21717227     -108.50372521
  entropy T*S    EENTRO =        -0.06022684
  eigenvalues    EBANDS =       709.13630064
  atomic energy  EATOM  =      1629.13144109
  ---------------------------------------------------
  free energy    TOTEN  =       300.11053230 eV

  energy without entropy =      300.17075914  energy(sigma->0) =      300.13060791


--------------------------------------------------------------------------------------------------------




----------------------------------------- Iteration    1(   2)  ---------------------------------------


    EDDIAG:  cpu time    4.59: real time    2.94
  RMM-DIIS:  cpu time   21.21: real time    6.78
    ORTHCH:  cpu time    0.33: real time    0.08
       DOS:  cpu time    0.01: real time    0.00
    --------------------------------------------
      LOOP:  cpu time   26.14: real time    9.81

 eigenvalue-minimisations  :   124
 total energy-change (2. order) :-0.3124263E+03  (-0.3077237E+03)
 number of electron   92.0000000 magnetization 
 augmentation part    92.0000000 magnetization 

 Free energy of the ion-electron system (eV)
  ---------------------------------------------------
  alpha Z        PSCENC =        -7.38312591
  Ewald energy   TEWEN  =     -2176.44036747
  -1/2 Hartree   DENC   =       -27.67285033
  -exchange  EXHF       =         0.00000000
  -V(xc)+E(xc)   XCENC  =      -796.31408595
  PAW double counting   =      1078.21717227     -108.50372521
  entropy T*S    EENTRO =        -0.04254508
  eigenvalues    EBANDS =       396.69234137
  atomic energy  EATOM  =      1629.13144109
  ---------------------------------------------------
  free energy    TOTEN  =       -12.31574521 eV

  energy without entropy =      -12.27320013  energy(sigma->0) =      -12.30156352


--------------------------------------------------------------------------------------------------------




----------------------------------------- Iteration    1(   3)  ---------------------------------------


    EDDIAG:  cpu time    4.59: real time    2.94
  RMM-DIIS:  cpu time   21.72: real time    6.83
    ORTHCH:  cpu time    0.33: real time    0.08
       DOS:  cpu time    0.01: real time    0.00
    --------------------------------------------
      LOOP:  cpu time   26.65: real time    9.86

 eigenvalue-minimisations  :   124
 total energy-change (2. order) :-0.7404231E+02  (-0.7538226E+02)
 number of electron   92.0000000 magnetization 
 augmentation part    92.0000000 magnetization 

 Free energy of the ion-electron system (eV)
  ---------------------------------------------------
  alpha Z        PSCENC =        -7.38312591
  Ewald energy   TEWEN  =     -2176.44036747
  -1/2 Hartree   DENC   =       -27.67285033
  -exchange  EXHF       =         0.00000000
  -V(xc)+E(xc)   XCENC  =      -796.31408595
  PAW double counting   =      1078.21717227     -108.50372521
  entropy T*S    EENTRO =        -0.02858335
  eigenvalues    EBANDS =       322.63606951
  atomic energy  EATOM  =      1629.13144109
  ---------------------------------------------------
  free energy    TOTEN  =       -86.35805534 eV

  energy without entropy =      -86.32947199  energy(sigma->0) =      -86.34852755


--------------------------------------------------------------------------------------------------------




----------------------------------------- Iteration    1(   4)  ---------------------------------------


    EDDIAG:  cpu time    4.66: real time    2.95
  RMM-DIIS:  cpu time   21.58: real time    6.82
    ORTHCH:  cpu time    0.33: real time    0.08
       DOS:  cpu time    0.01: real time    0.00
    --------------------------------------------
      LOOP:  cpu time   26.59: real time    9.85

 eigenvalue-minimisations  :   124
 total energy-change (2. order) :-0.1614610E+02  (-0.1670723E+02)
 number of electron   92.0000000 magnetization 
 augmentation part    92.0000000 magnetization 

 Free energy of the ion-electron system (eV)
  ---------------------------------------------------
  alpha Z        PSCENC =        -7.38312591
  Ewald energy   TEWEN  =     -2176.44036747
  -1/2 Hartree   DENC   =       -27.67285033
  -exchange  EXHF       =         0.00000000
  -V(xc)+E(xc)   XCENC  =      -796.31408595
  PAW double counting   =      1078.21717227     -108.50372521
  entropy T*S    EENTRO =         0.00304287
  eigenvalues    EBANDS =       306.45834482
  atomic energy  EATOM  =      1629.13144109
  ---------------------------------------------------
  free energy    TOTEN  =      -102.50415381 eV

  energy without entropy =     -102.50719668  energy(sigma->0) =     -102.50516810


--------------------------------------------------------------------------------------------------------




----------------------------------------- Iteration    1(   5)  ---------------------------------------


    EDDIAG:  cpu time    4.49: real time    2.93
  RMM-DIIS:  cpu time   21.46: real time    6.80
    ORTHCH:  cpu time    0.33: real time    0.08
       DOS:  cpu time    0.01: real time    0.00
    --------------------------------------------
      LOOP:  cpu time   26.29: real time    9.82

 eigenvalue-minimisations  :   124
 total energy-change (2. order) :-0.6245626E+01  (-0.5271399E+01)
 number of electron   92.0000000 magnetization 
 augmentation part    92.0000000 magnetization 

 Free energy of the ion-electron system (eV)
  ---------------------------------------------------
  alpha Z        PSCENC =        -7.38312591
  Ewald energy   TEWEN  =     -2176.44036747
  -1/2 Hartree   DENC   =       -27.67285033
  -exchange  EXHF       =         0.00000000
  -V(xc)+E(xc)   XCENC  =      -796.31408595
  PAW double counting   =      1078.21717227     -108.50372521
  entropy T*S    EENTRO =        -0.04210070
  eigenvalues    EBANDS =       300.25786288
  atomic energy  EATOM  =      1629.13144109
  ---------------------------------------------------
  free energy    TOTEN  =      -108.74977931 eV

  energy without entropy =     -108.70767862  energy(sigma->0) =     -108.73574575


--------------------------------------------------------------------------------------------------------




----------------------------------------- Iteration    1(   6)  ---------------------------------------


    EDDIAG:  cpu time    4.51: real time    2.93
  RMM-DIIS:  cpu time   21.39: real time    6.80
    ORTHCH:  cpu time    0.33: real time    0.08
       DOS:  cpu time    0.01: real time    0.00
    --------------------------------------------
      LOOP:  cpu time   26.25: real time    9.82

 eigenvalue-minimisations  :   124
 total energy-change (2. order) :-0.2521532E+01  (-0.2037862E+01)
 number of electron   92.0000000 magnetization 
 augmentation part    92.0000000 magnetization 

 Free energy of the ion-electron system (eV)
  ---------------------------------------------------
  alpha Z        PSCENC =        -7.38312591
  Ewald energy   TEWEN  =     -2176.44036747
  -1/2 Hartree   DENC   =       -27.67285033
  -exchange  EXHF       =         0.00000000
  -V(xc)+E(xc)   XCENC  =      -796.31408595
  PAW double counting   =      1078.21717227     -108.50372521
  entropy T*S    EENTRO =        -0.03930185
  eigenvalues    EBANDS =       297.73353174
  atomic energy  EATOM  =      1629.13144109
  ---------------------------------------------------
  free energy    TOTEN  =      -111.27131162 eV

  energy without entropy =     -111.23200976  energy(sigma->0) =     -111.25821100


--------------------------------------------------------------------------------------------------------




----------------------------------------- Iteration    1(   7)  ---------------------------------------


    EDDIAG:  cpu time    4.53: real time    2.93
  RMM-DIIS:  cpu time   21.32: real time    6.81
    ORTHCH:  cpu time    0.33: real time    0.08
       DOS:  cpu time    0.01: real time    0.00
    --------------------------------------------
      LOOP:  cpu time   26.19: real time    9.83

 eigenvalue-minimisations  :   124
 total energy-change (2. order) :-0.1045717E+01  (-0.8807422E+00)
 number of electron   92.0000000 magnetization 
 augmentation part    92.0000000 magnetization 

 Free energy of the ion-electron system (eV)
  ---------------------------------------------------
  alpha Z        PSCENC =        -7.38312591
  Ewald energy   TEWEN  =     -2176.44036747
  -1/2 Hartree   DENC   =       -27.67285033
  -exchange  EXHF       =         0.00000000
  -V(xc)+E(xc)   XCENC  =      -796.31408595
  PAW double counting   =      1078.21717227     -108.50372521
  entropy T*S    EENTRO =        -0.02744617
  eigenvalues    EBANDS =       296.67595934
  atomic energy  EATOM  =      1629.13144109
  ---------------------------------------------------
  free energy    TOTEN  =      -112.31702833 eV

  energy without entropy =     -112.28958216  energy(sigma->0) =     -112.30787961


--------------------------------------------------------------------------------------------------------




----------------------------------------- Iteration    1(   8)  ---------------------------------------


    EDDIAG:  cpu time    4.57: real time    2.94
  RMM-DIIS:  cpu time   21.73: real time    6.83
    ORTHCH:  cpu time    0.33: real time    0.08
       DOS:  cpu time    0.01: real time    0.00
    --------------------------------------------
      LOOP:  cpu time   26.66: real time    9.86

 eigenvalue-minimisations  :   124
 total energy-change (2. order) :-0.4821034E+00  (-0.4052699E+00)
 number of electron   92.0000000 magnetization 
 augmentation part    92.0000000 magnetization 

 Free energy of the ion-electron system (eV)
  ---------------------------------------------------
  alpha Z        PSCENC =        -7.38312591
  Ewald energy   TEWEN  =     -2176.44036747
  -1/2 Hartree   DENC   =       -27.67285033
  -exchange  EXHF       =         0.00000000
  -V(xc)+E(xc)   XCENC  =      -796.31408595
  PAW double counting   =      1078.21717227     -108.50372521
  entropy T*S    EENTRO =        -0.01882036
  eigenvalues    EBANDS =       296.18523011
  atomic energy  EATOM  =      1629.13144109
  ---------------------------------------------------
  free energy    TOTEN  =      -112.79913176 eV

  energy without entropy =     -112.78031140  energy(sigma->0) =     -112.79285830


--------------------------------------------------------------------------------------------------------




----------------------------------------- Iteration    1(   9)  ---------------------------------------


    EDDIAG:  cpu time    4.58: real time    2.94
  RMM-DIIS:  cpu time   56.46: real time   15.83
    ORTHCH:  cpu time    0.33: real time    0.08
       DOS:  cpu time    0.01: real time    0.00
    --------------------------------------------
      LOOP:  cpu time   61.39: real time   18.86

 eigenvalue-minimisations  :   330
 total energy-change (2. order) :-0.3837595E+00  (-0.3569051E+00)
 number of electron   92.0000000 magnetization 
 augmentation part    92.0000000 magnetization 

 Free energy of the ion-electron system (eV)
  ---------------------------------------------------
  alpha Z        PSCENC =        -7.38312591
  Ewald energy   TEWEN  =     -2176.44036747
  -1/2 Hartree   DENC   =       -27.67285033
  -exchange  EXHF       =         0.00000000
  -V(xc)+E(xc)   XCENC  =      -796.31408595
  PAW double counting   =      1078.21717227     -108.50372521
  entropy T*S    EENTRO =         0.00113354
  eigenvalues    EBANDS =       295.78151671
  atomic energy  EATOM  =      1629.13144109
  ---------------------------------------------------
  free energy    TOTEN  =      -113.18289126 eV

  energy without entropy =     -113.18402479  energy(sigma->0) =     -113.18326910


--------------------------------------------------------------------------------------------------------




----------------------------------------- Iteration    1(  10)  ---------------------------------------


    EDDIAG:  cpu time    4.51: real time    2.93
  RMM-DIIS:  cpu time   52.78: real time   14.69
    ORTHCH:  cpu time    0.33: real time    0.08
       DOS:  cpu time    0.01: real time    0.00
    --------------------------------------------
      LOOP:  cpu time   57.63: real time   17.71

 eigenvalue-minimisations  :   306
 total energy-change (2. order) :-0.5796566E-01  (-0.2654531E-01)
 number of electron   92.0000000 magnetization 
 augmentation part    92.0000000 magnetization 

 Free energy of the ion-electron system (eV)
  ---------------------------------------------------
  alpha Z        PSCENC =        -7.38312591
  Ewald energy   TEWEN  =     -2176.44036747
  -1/2 Hartree   DENC   =       -27.67285033
  -exchange  EXHF       =         0.00000000
  -V(xc)+E(xc)   XCENC  =      -796.31408595
  PAW double counting   =      1078.21717227     -108.50372521
  entropy T*S    EENTRO =        -0.00652606
  eigenvalues    EBANDS =       295.73121064
  atomic energy  EATOM  =      1629.13144109
  ---------------------------------------------------
  free energy    TOTEN  =      -113.24085692 eV

  energy without entropy =     -113.23433086  energy(sigma->0) =     -113.23868157


--------------------------------------------------------------------------------------------------------




----------------------------------------- Iteration    1(  11)  ---------------------------------------


    EDDIAG:  cpu time    4.95: real time    3.35
  RMM-DIIS:  cpu time   45.42: real time   12.67
    ORTHCH:  cpu time    0.33: real time    0.08
       DOS:  cpu time    0.01: real time    0.00
    --------------------------------------------
      LOOP:  cpu time   50.72: real time   16.11

 eigenvalue-minimisations  :   255
 total energy-change (2. order) :-0.2236408E-02  (-0.9626297E-03)
 number of electron   92.0000000 magnetization 
 augmentation part    92.0000000 magnetization 

 Free energy of the ion-electron system (eV)
  ---------------------------------------------------
  alpha Z        PSCENC =        -7.38312591
  Ewald energy   TEWEN  =     -2176.44036747
  -1/2 Hartree   DENC   =       -27.67285033
  -exchange  EXHF       =         0.00000000
  -V(xc)+E(xc)   XCENC  =      -796.31408595
  PAW double counting   =      1078.21717227     -108.50372521
  entropy T*S    EENTRO =        -0.00695087
  eigenvalues    EBANDS =       295.72939904
  atomic energy  EATOM  =      1629.13144109
  ---------------------------------------------------
  free energy    TOTEN  =      -113.24309333 eV

  energy without entropy =     -113.23614246  energy(sigma->0) =     -113.24077637


--------------------------------------------------------------------------------------------------------




----------------------------------------- Iteration    1(  12)  ---------------------------------------


    EDDIAG:  cpu time    4.58: real time    2.94
  RMM-DIIS:  cpu time   36.60: real time   10.38
    ORTHCH:  cpu time    0.33: real time    0.08
       DOS:  cpu time    0.01: real time    0.00
    CHARGE:  cpu time    1.75: real time    1.65
    MIXING:  cpu time    0.06: real time    0.06
    --------------------------------------------
      LOOP:  cpu time   43.34: real time   15.12

 eigenvalue-minimisations  :   196
 total energy-change (2. order) :-0.4170191E-04  (-0.2685422E-04)
 number of electron   91.9999998 magnetization 
 augmentation part    -1.1049247 magnetization 

 Broyden mixing:
  rms(total) = 0.54687E+00    rms(broyden)= 0.54685E+00
  rms(prec ) = 0.97615E+00
  weight for this iteration     100.00

 Free energy of the ion-electron system (eV)
  ---------------------------------------------------
  alpha Z        PSCENC =        -7.38312591
  Ewald energy   TEWEN  =     -2176.44036747
  -1/2 Hartree   DENC   =       -27.67285033
  -exchange  EXHF       =         0.00000000
  -V(xc)+E(xc)   XCENC  =      -796.31408595
  PAW double counting   =      1078.21717227     -108.50372521
  entropy T*S    EENTRO =        -0.00694719
  eigenvalues    EBANDS =       295.72935366
  atomic energy  EATOM  =      1629.13144109
  ---------------------------------------------------
  free energy    TOTEN  =      -113.24313503 eV

  energy without entropy =     -113.23618784  energy(sigma->0) =     -113.24081930


--------------------------------------------------------------------------------------------------------




----------------------------------------- Iteration    1(  13)  ---------------------------------------


    POTLOK:  cpu time    1.77: real time    1.77
    SETDIJ:  cpu time    0.15: real time    0.15
    EDDIAG:  cpu time    4.65: real time    2.96
  RMM-DIIS:  cpu time   45.45: real time   13.16
    ORTHCH:  cpu time    0.33: real time    0.08
       DOS:  cpu time    0.01: real time    0.00
    CHARGE:  cpu time    1.73: real time    1.63
    MIXING:  cpu time    0.05: real time    0.05
    --------------------------------------------
      LOOP:  cpu time   54.14: real time   19.82

 eigenvalue-minimisations  :   270
 total energy-change (2. order) : 0.8326244E+00  (-0.1587563E+00)
 number of electron   91.9999998 magnetization 
 augmentation part    -1.1134228 magnetization 

 Broyden mixing:
  rms(total) = 0.33064E+00    rms(broyden)= 0.33063E+00
  rms(prec ) = 0.49547E+00
  weight for this iteration     100.00

 eigenvalues of (default mixing * dielectric matrix)
  average eigenvalue GAMMA=   2.3699
  2.3699

 Free energy of the ion-electron system (eV)
  ---------------------------------------------------
  alpha Z        PSCENC =        -7.38312591
  Ewald energy   TEWEN  =     -2176.44036747
  -1/2 Hartree   DENC   =       -30.10499417
  -exchange  EXHF       =         0.00000000
  -V(xc)+E(xc)   XCENC  =      -795.16613971
  PAW double counting   =      1080.89605166     -111.33319907
  entropy T*S    EENTRO =        -0.00316589
  eigenvalues    EBANDS =       297.99298884
  atomic energy  EATOM  =      1629.13144109
  ---------------------------------------------------
  free energy    TOTEN  =      -112.41051063 eV

  energy without entropy =     -112.40734474  energy(sigma->0) =     -112.40945533


--------------------------------------------------------------------------------------------------------




----------------------------------------- Iteration    1(  14)  ---------------------------------------


    POTLOK:  cpu time    1.77: real time    1.77
    SETDIJ:  cpu time    0.15: real time    0.15
    EDDIAG:  cpu time    4.66: real time    2.96
  RMM-DIIS:  cpu time   49.36: real time   14.10
    ORTHCH:  cpu time    0.33: real time    0.08
       DOS:  cpu time    0.01: real time    0.00
    CHARGE:  cpu time    1.72: real time    1.63
    MIXING:  cpu time    0.06: real time    0.05
    --------------------------------------------
      LOOP:  cpu time   58.07: real time   20.75

 eigenvalue-minimisations  :   291
 total energy-change (2. order) : 0.2399848E+00  (-0.2915590E-01)
 number of electron   91.9999998 magnetization 
 augmentation part    -1.1264172 magnetization 

 Broyden mixing:
  rms(total) = 0.14847E+00    rms(broyden)= 0.14847E+00
  rms(prec ) = 0.21931E+00
  weight for this iteration     100.00

 eigenvalues of (default mixing * dielectric matrix)
  average eigenvalue GAMMA=   1.8493
  2.5848  1.1139

 Free energy of the ion-electron system (eV)
  ---------------------------------------------------
  alpha Z        PSCENC =        -7.38312591
  Ewald energy   TEWEN  =     -2176.44036747
  -1/2 Hartree   DENC   =       -31.31508553
  -exchange  EXHF       =         0.00000000
  -V(xc)+E(xc)   XCENC  =      -793.96546933
  PAW double counting   =      1082.77928754     -113.37184533
  entropy T*S    EENTRO =        -0.00638584
  eigenvalues    EBANDS =       298.40102498
  atomic energy  EATOM  =      1629.13144109
  ---------------------------------------------------
  free energy    TOTEN  =      -112.17052579 eV

  energy without entropy =     -112.16413995  energy(sigma->0) =     -112.16839717


--------------------------------------------------------------------------------------------------------




----------------------------------------- Iteration    1(  15)  ---------------------------------------


    POTLOK:  cpu time    1.85: real time    1.79
    SETDIJ:  cpu time    0.15: real time    0.15
    EDDIAG:  cpu time    4.66: real time    2.96
  RMM-DIIS:  cpu time   49.06: real time   14.02
    ORTHCH:  cpu time    0.33: real time    0.08
       DOS:  cpu time    0.00: real time    0.00
    CHARGE:  cpu time    1.73: real time    1.63
    MIXING:  cpu time    0.07: real time    0.05
    --------------------------------------------
      LOOP:  cpu time   57.86: real time   20.69

 eigenvalue-minimisations  :   289
 total energy-change (2. order) : 0.5999064E-01  (-0.6292376E-02)
 number of electron   91.9999998 magnetization 
 augmentation part    -1.1391329 magnetization 

 Broyden mixing:
  rms(total) = 0.19170E-01    rms(broyden)= 0.19170E-01
  rms(prec ) = 0.34462E-01
  weight for this iteration     100.00

 eigenvalues of (default mixing * dielectric matrix)
  average eigenvalue GAMMA=   1.7633
  2.6258  1.1319  1.5321

 Free energy of the ion-electron system (eV)
  ---------------------------------------------------
  alpha Z        PSCENC =        -7.38312591
  Ewald energy   TEWEN  =     -2176.44036747
  -1/2 Hartree   DENC   =       -32.07078312
  -exchange  EXHF       =         0.00000000
  -V(xc)+E(xc)   XCENC  =      -792.95265216
  PAW double counting   =      1084.06869422     -114.80022825
  entropy T*S    EENTRO =        -0.00572512
  eigenvalues    EBANDS =       298.34221158
  atomic energy  EATOM  =      1629.13144109
  ---------------------------------------------------
  free energy    TOTEN  =      -112.11053515 eV

  energy without entropy =     -112.10481002  energy(sigma->0) =     -112.10862677


--------------------------------------------------------------------------------------------------------




----------------------------------------- Iteration    1(  16)  ---------------------------------------


    POTLOK:  cpu time    1.89: real time    1.78
    SETDIJ:  cpu time    0.15: real time    0.15
    EDDIAG:  cpu time    4.65: real time    2.96
  RMM-DIIS:  cpu time   50.55: real time   14.37
    ORTHCH:  cpu time    0.33: real time    0.08
       DOS:  cpu time    0.01: real time    0.00
    CHARGE:  cpu time    1.73: real time    1.63
    MIXING:  cpu time    0.08: real time    0.06
    --------------------------------------------
      LOOP:  cpu time   59.40: real time   21.03

 eigenvalue-minimisations  :   296
 total energy-change (2. order) : 0.1683228E-02  (-0.7044937E-03)
 number of electron   91.9999998 magnetization 
 augmentation part    -1.1424993 magnetization 

 Broyden mixing:
  rms(total) = 0.59369E-02    rms(broyden)= 0.59368E-02
  rms(prec ) = 0.12091E-01
  weight for this iteration     100.00

 eigenvalues of (default mixing * dielectric matrix)
  average eigenvalue GAMMA=   1.7717
  2.6044  2.2357  1.1234  1.1234

 Free energy of the ion-electron system (eV)
  ---------------------------------------------------
  alpha Z        PSCENC =        -7.38312591
  Ewald energy   TEWEN  =     -2176.44036747
  -1/2 Hartree   DENC   =       -32.12150456
  -exchange  EXHF       =         0.00000000
  -V(xc)+E(xc)   XCENC  =      -792.82693091
  PAW double counting   =      1084.32495849     -115.08596698
  entropy T*S    EENTRO =        -0.00582237
  eigenvalues    EBANDS =       298.29846670
  atomic energy  EATOM  =      1629.13144109
  ---------------------------------------------------
  free energy    TOTEN  =      -112.10885192 eV

  energy without entropy =     -112.10302955  energy(sigma->0) =     -112.10691113


--------------------------------------------------------------------------------------------------------




----------------------------------------- Iteration    1(  17)  ---------------------------------------


    POTLOK:  cpu time    1.93: real time    1.80
    SETDIJ:  cpu time    0.15: real time    0.15
    EDDIAG:  cpu time    4.65: real time    2.96
  RMM-DIIS:  cpu time   47.36: real time   13.32
    ORTHCH:  cpu time    0.33: real time    0.08
       DOS:  cpu time    0.01: real time    0.00
    CHARGE:  cpu time    1.73: real time    1.63
    MIXING:  cpu time    0.09: real time    0.06
    --------------------------------------------
      LOOP:  cpu time   56.26: real time   20.01

 eigenvalue-minimisations  :   272
 total energy-change (2. order) : 0.1429102E-03  (-0.9390527E-04)
 number of electron   91.9999998 magnetization 
 augmentation part    -1.1435088 magnetization 

 Broyden mixing:
  rms(total) = 0.18811E-02    rms(broyden)= 0.18810E-02
  rms(prec ) = 0.32164E-02
  weight for this iteration     100.00

 eigenvalues of (default mixing * dielectric matrix)
  average eigenvalue GAMMA=   1.6820
  2.6589  2.2150  1.5249  1.0056  1.0056

 Free energy of the ion-electron system (eV)
  ---------------------------------------------------
  alpha Z        PSCENC =        -7.38312591
  Ewald energy   TEWEN  =     -2176.44036747
  -1/2 Hartree   DENC   =       -32.06379864
  -exchange  EXHF       =         0.00000000
  -V(xc)+E(xc)   XCENC  =      -792.81044716
  PAW double counting   =      1084.37722788     -115.14826820
  entropy T*S    EENTRO =        -0.00542233
  eigenvalues    EBANDS =       298.23405173
  atomic energy  EATOM  =      1629.13144109
  ---------------------------------------------------
  free energy    TOTEN  =      -112.10870901 eV

  energy without entropy =     -112.10328668  energy(sigma->0) =     -112.10690157


--------------------------------------------------------------------------------------------------------




----------------------------------------- Iteration    1(  18)  ---------------------------------------


    POTLOK:  cpu time    1.92: real time    1.79
    SETDIJ:  cpu time    0.15: real time    0.15
    EDDIAG:  cpu time    4.75: real time    3.04
  RMM-DIIS:  cpu time   30.57: real time    9.07
    ORTHCH:  cpu time    0.33: real time    0.08
       DOS:  cpu time    0.01: real time    0.00
    --------------------------------------------
      LOOP:  cpu time   37.74: real time   14.14

 eigenvalue-minimisations  :   178
 total energy-change (2. order) :-0.7677065E-05  (-0.7275229E-05)
 number of electron   91.9999998 magnetization 
 augmentation part    -1.1435088 magnetization 

 Free energy of the ion-electron system (eV)
  ---------------------------------------------------
  alpha Z        PSCENC =        -7.38312591
  Ewald energy   TEWEN  =     -2176.44036747
  -1/2 Hartree   DENC   =       -32.07570930
  -exchange  EXHF       =         0.00000000
  -V(xc)+E(xc)   XCENC  =      -792.80206638
  PAW double counting   =      1084.38603992     -115.16125776
  entropy T*S    EENTRO =        -0.00544389
  eigenvalues    EBANDS =       298.24177301
  atomic energy  EATOM  =      1629.13144109
  ---------------------------------------------------
  free energy    TOTEN  =      -112.10871669 eV

  energy without entropy =     -112.10327280  energy(sigma->0) =     -112.10690206


--------------------------------------------------------------------------------------------------------




 average (electrostatic) potential at core
  the test charge radii are     1.0714  1.0406
  (the norm of the test charge is              1.0000)
       1 -50.6487       2 -72.9680       3 -73.1291       4 -73.0302       5 -73.0302
       6 -73.0508       7 -73.0508       8 -73.0499       9 -72.9000      10 -73.0204
      11 -73.0302      12 -73.0302      13 -73.0829      14 -73.0829      15 -73.0499
      16 -72.9000      17 -73.0508      18 -73.0508      19 -72.9000      20 -73.0499
      21 -73.1293      22 -72.9682      23 -73.0304      24 -73.0304      25 -73.0829
      26 -73.0829      27 -72.9000      28 -73.0499      29 -73.0206      30 -73.0304
      31 -73.0304
 
 
 
 E-fermi :   7.8723     XC(G=0): -10.0126     alpha+bet :-14.3073
   add alpha+bet to get absolut eigen values

 k-point   1 :       0.2500    0.2500    0.2500
  band No.  band energies     occupation 
      1      -2.9832      2.00000
      2      -1.9605      2.00000
      3      -1.8788      2.00000
      4      -1.6419      2.00000
      5      -0.8120      2.00000
      6      -0.7608      2.00000
      7      -0.3541      2.00000
      8       0.2571      2.00000
      9       0.3217      2.00000
     10       0.5324      2.00000
     11       0.6161      2.00000
     12       1.3448      2.00000
     13       1.3638      2.00000
     14       1.4058      2.00000
     15       1.5394      2.00000
     16       1.8140      2.00000
     17       1.9402      2.00000
     18       2.7008      2.00000
     19       2.7085      2.00000
     20       2.9045      2.00000
     21       3.5303      2.00000
     22       3.5916      2.00000
     23       3.6288      2.00000
     24       3.6771      2.00000
     25       3.7361      2.00000
     26       4.0506      2.00000
     27       4.5308      2.00000
     28       4.5581      2.00000
     29       4.6450      2.00000
     30       4.8072      2.00000
     31       4.8648      2.00000
     32       4.8705      2.00000
     33       4.9292      2.00000
     34       5.1107      2.00000
     35       5.2064      2.00000
     36       5.7267      2.00000
     37       5.8930      2.00000
     38       6.3556      2.00000
     39       6.7099      2.00000
     40       6.7757      2.00000
     41       6.7865      2.00000
     42       6.9443      2.00000
     43       6.9893      2.00000
     44       7.0941      2.00000
     45       7.1497      2.00000
     46       7.7894      1.63912
     47       7.8876      0.87114
     48       8.0064      0.10168
     49       8.0362      0.01041
     50       8.1622     -0.05967
     51       8.1986     -0.04325
     52       8.2072     -0.03937
     53       8.3738     -0.00224
     54       8.5367     -0.00003
     55       9.0567      0.00000
     56       9.1372      0.00000
     57       9.1880      0.00000
     58       9.3544      0.00000
     59       9.3718      0.00000
     60       9.5154      0.00000
     61      10.0344      0.00000
     62      10.9500      0.00000

 k-point   2 :      -0.2500    0.2500    0.2500
  band No.  band energies     occupation 
      1      -2.9862      2.00000
      2      -1.9508      2.00000
      3      -1.8155      2.00000
      4      -1.7224      2.00000
      5      -0.8255      2.00000
      6      -0.6092      2.00000
      7      -0.5489      2.00000
      8       0.2615      2.00000
      9       0.3985      2.00000
     10       0.4414      2.00000
     11       0.6990      2.00000
     12       1.3934      2.00000
     13       1.4281      2.00000
     14       1.4928      2.00000
     15       1.4934      2.00000
     16       1.7681      2.00000
     17       1.8426      2.00000
     18       2.6214      2.00000
     19       2.7731      2.00000
     20       2.8397      2.00000
     21       3.5377      2.00000
     22       3.5879      2.00000
     23       3.6341      2.00000
     24       3.6811      2.00000
     25       3.8118      2.00000
     26       3.9631      2.00000
     27       4.5980      2.00000
     28       4.6514      2.00000
     29       4.6778      2.00000
     30       4.6990      2.00000
     31       4.7161      2.00000
     32       4.9494      2.00000
     33       4.9734      2.00000
     34       5.0595      2.00000
     35       5.1750      2.00000
     36       5.7463      2.00000
     37       6.1175      2.00000
     38       6.1776      2.00000
     39       6.7062      2.00000
     40       6.7468      2.00000
     41       6.9177      2.00000
     42       7.0237      2.00000
     43       7.0329      2.00000
     44       7.0704      2.00000
     45       7.1413      2.00000
     46       7.8378      1.28734
     47       7.9566      0.35198
     48       7.9949      0.14859
     49       8.0669     -0.04412
     50       8.1494     -0.06459
     51       8.1718     -0.05553
     52       8.1881     -0.04811
     53       8.2168     -0.03515
     54       8.2642     -0.01820
     55       9.0953      0.00000
     56       9.1468      0.00000
     57       9.2728      0.00000
     58       9.3780      0.00000
     59       9.4082      0.00000
     60       9.4878      0.00000
     61       9.9957      0.00000
     62      10.0782      0.00000


--------------------------------------------------------------------------------------------------------


 soft charge-density along one line, spin component           1
         0         1         2         3         4         5         6         7         8         9
 total charge-density along one line
 
 pseudopotential strength for first ion, spin component:           1
  3.573  -0.044   0.000   0.000   0.000   0.000   0.000   0.000
 -0.044  -0.001   0.000   0.000   0.000   0.000   0.000   0.000
  0.000   0.000   0.744   0.000   0.000  -0.043   0.000   0.000
  0.000   0.000   0.000   0.744   0.000   0.000  -0.043   0.000
  0.000   0.000   0.000   0.000   0.744   0.000   0.000  -0.043
  0.000   0.000  -0.043   0.000   0.000  -0.031   0.000   0.000
  0.000   0.000   0.000  -0.043   0.000   0.000  -0.031   0.000
  0.000   0.000   0.000   0.000  -0.043   0.000   0.000  -0.031
 total augmentation occupancy for first ion, spin component:           1
  1.179  -0.047   0.000   0.000   0.000   0.000   0.000   0.000
 -0.047   0.004   0.000   0.000   0.000   0.000   0.000   0.000
  0.000   0.000   1.102   0.000   0.000   0.049   0.000   0.000
  0.000   0.000   0.000   0.632  -0.205   0.000   0.030  -0.009
  0.000   0.000   0.000  -0.205   0.632   0.000  -0.009   0.030
  0.000   0.000   0.049   0.000   0.000   0.003   0.000   0.000
  0.000   0.000   0.000   0.030  -0.009   0.000   0.002   0.000
  0.000   0.000   0.000  -0.009   0.030   0.000   0.000   0.002


------------------------ aborting loop because EDIFF is reached ----------------------------------------




--------------------------------------------------------------------------------------------------------



  FREE ENERGIE OF THE ION-ELECTRON SYSTEM (eV)
  ---------------------------------------------------
  free  energy   TOTEN  =      -112.108717 eV

  energy  without entropy=     -112.103273  energy(sigma->0) =     -112.106902
 
    CHARGE:  cpu time    1.65: real time    1.65
    FORLOC:  cpu time    0.72: real time    0.72
    FORNL :  cpu time    5.80: real time    5.80
    STRESS:  cpu time   38.04: real time   10.18
    FORCOR:  cpu time    2.46: real time    2.46
    FORHAR:  cpu time    1.12: real time    1.12
    MIXING:  cpu time    0.09: real time    0.06

  FORCE on cell =-STRESS in cart. coord.  units (eV):
  Direction    XX          YY          ZZ          XY          YZ          ZX
  --------------------------------------------------------------------------------------
  Alpha Z    -7.38313    -7.38313    -7.38313
  Ewald    -722.78508  -730.87870  -722.78508     0.00000     0.00000     1.66506
  Hartree    14.50924     3.08759    14.50924     0.00000     0.00000     3.57803
  E(xc)    -260.98386  -261.29147  -260.98386     0.00000     0.00000     0.19119
  Local     -24.29272    -4.64177   -24.29272     0.00000     0.00000    -5.34968
  n-local   577.94933   580.74179   577.94923     0.43792    -0.97940    -1.83634
  augment   -30.49976   -30.70077   -30.49976     0.00001     0.00001     0.01073
  Kinetic   452.52309   457.14470   452.52301    -4.05240     0.30878     2.59655
  Fock        0.00000     0.00000     0.00000     0.00000     0.00000     0.00000
  -------------------------------------------------------------------------------------
  Total      -0.96298     6.07825    -0.96298     0.00000     0.00000     0.85556
  in kB      -2.91713    18.41273    -2.91713     0.00000     0.00000     2.59175
  external pressure =        4.19 kB  Pullay stress =        0.00 kB


 VOLUME and BASIS-vectors are now :
 -----------------------------------------------------------------------------
  energy-cutoff  :      300.00
  volume of cell :      528.90
      direct lattice vectors                 reciprocal lattice vectors
     8.087054000  0.000000000  0.000000000     0.123654423  0.000000000  0.000000000
     0.000000000  8.087054000  0.000000000     0.000000000  0.123654423  0.000000000
     0.000000000  0.000000000  8.087054000     0.000000000  0.000000000  0.123654423

  length of vectors
     8.087054000  8.087054000  8.087054000     0.123654423  0.123654423  0.123654423


 FORCES acting on ions
    electron-ion (+dipol)            ewald-force                    non-local-force                 convergence-correction
 -----------------------------------------------------------------------------------------------
   -.197E-05 -.362E-13 -.197E-05   -.144E-03 0.228E-14 -.144E-03   0.678E-20 0.000E+00 0.169E-19   0.145E-04 0.460E-15 0.145E-04
   -.223E+01 0.169E-12 -.223E+01   0.209E+01 -.333E-14 0.209E+01   0.124E+00 0.000E+00 0.124E+00   0.235E-02 0.185E-13 0.235E-02
   -.206E+01 -.331E-14 -.206E+01   0.192E+01 -.705E-14 0.192E+01   0.162E+00 0.000E+00 0.162E+00   0.310E-02 0.493E-14 0.310E-02
   -.240E+01 -.103E+02 -.727E+01   0.207E+01 0.103E+02 0.734E+01   0.372E+00 0.240E-01 -.258E-01   0.297E-02 0.583E-02 0.262E-02
   -.727E+01 -.103E+02 -.240E+01   0.734E+01 0.103E+02 0.207E+01   -.258E-01 0.240E-01 0.372E+00   0.262E-02 0.583E-02 0.297E-02
   0.145E+01 -.181E-13 -.226E+01   -.174E+01 0.305E-14 0.161E+01   0.323E+00 0.000E+00 0.695E+00   -.223E-02 0.813E-14 0.275E-02
   0.226E+01 0.112E-12 -.145E+01   -.161E+01 -.733E-13 0.174E+01   -.695E+00 0.000E+00 -.323E+00   -.280E-02 0.117E-14 0.227E-02
   0.194E+01 -.511E+01 -.194E+01   -.194E+01 0.504E+01 0.194E+01   -.392E-02 0.116E+00 0.392E-02   -.300E-02 0.560E-02 0.296E-02
   0.711E+01 -.124E+02 -.711E+01   -.698E+01 0.126E+02 0.698E+01   -.131E+00 -.161E+00 0.131E+00   -.270E-02 0.537E-02 0.273E-02
   -.749E+01 0.530E-12 -.749E+01   0.737E+01 0.409E-13 0.737E+01   0.147E+00 0.000E+00 0.147E+00   0.260E-02 -.171E-13 0.260E-02
   -.240E+01 0.103E+02 -.727E+01   0.207E+01 -.103E+02 0.734E+01   0.372E+00 -.240E-01 -.258E-01   0.297E-02 -.583E-02 0.262E-02
   -.727E+01 0.103E+02 -.240E+01   0.734E+01 -.103E+02 0.207E+01   -.258E-01 -.240E-01 0.372E+00   0.262E-02 -.583E-02 0.297E-02
   0.651E+01 0.123E-12 -.647E+01   -.685E+01 -.211E-13 0.649E+01   0.331E+00 0.260E-17 0.291E-01   -.241E-02 -.673E-14 0.278E-02
   0.647E+01 -.850E-13 -.650E+01   -.649E+01 -.845E-12 0.685E+01   -.291E-01 0.000E+00 -.331E+00   -.282E-02 0.978E-15 0.245E-02
   0.194E+01 0.511E+01 -.194E+01   -.194E+01 -.504E+01 0.194E+01   -.392E-02 -.116E+00 0.392E-02   -.300E-02 -.560E-02 0.296E-02
   0.711E+01 0.124E+02 -.711E+01   -.698E+01 -.126E+02 0.698E+01   -.131E+00 0.161E+00 0.131E+00   -.270E-02 -.537E-02 0.273E-02
   -.226E+01 -.690E-13 0.145E+01   0.161E+01 -.649E-14 -.174E+01   0.695E+00 0.000E+00 0.323E+00   0.275E-02 -.128E-14 -.223E-02
   -.145E+01 -.352E-13 0.226E+01   0.174E+01 -.722E-14 -.161E+01   -.323E+00 0.000E+00 -.695E+00   0.227E-02 0.114E-13 -.280E-02
   -.711E+01 -.124E+02 0.711E+01   0.698E+01 0.126E+02 -.698E+01   0.131E+00 -.161E+00 -.131E+00   0.273E-02 0.537E-02 -.270E-02
   -.194E+01 -.511E+01 0.194E+01   0.194E+01 0.504E+01 -.194E+01   0.392E-02 0.116E+00 -.392E-02   0.296E-02 0.560E-02 -.300E-02
   0.206E+01 0.606E-14 0.206E+01   -.192E+01 -.450E-14 -.192E+01   -.162E+00 0.000E+00 -.162E+00   -.306E-02 -.101E-15 -.306E-02
   0.223E+01 -.103E-12 0.223E+01   -.209E+01 -.749E-14 -.209E+01   -.124E+00 0.000E+00 -.124E+00   -.239E-02 0.826E-14 -.239E-02
   0.727E+01 -.103E+02 0.240E+01   -.734E+01 0.103E+02 -.207E+01   0.258E-01 0.240E-01 -.372E+00   -.265E-02 0.583E-02 -.293E-02
   0.240E+01 -.103E+02 0.727E+01   -.207E+01 0.103E+02 -.734E+01   -.372E+00 0.240E-01 0.258E-01   -.293E-02 0.582E-02 -.265E-02
   -.647E+01 0.854E-13 0.651E+01   0.649E+01 -.987E-13 -.685E+01   0.291E-01 0.000E+00 0.331E+00   0.278E-02 0.171E-14 -.241E-02
   -.650E+01 -.108E-12 0.647E+01   0.685E+01 -.865E-12 -.649E+01   -.331E+00 0.867E-18 -.291E-01   0.244E-02 -.103E-13 -.282E-02
   -.711E+01 0.124E+02 0.711E+01   0.698E+01 -.126E+02 -.698E+01   0.131E+00 0.161E+00 -.131E+00   0.273E-02 -.537E-02 -.270E-02
   -.194E+01 0.511E+01 0.194E+01   0.194E+01 -.504E+01 -.194E+01   0.392E-02 -.116E+00 -.392E-02   0.296E-02 -.560E-02 -.300E-02
   0.749E+01 0.175E-12 0.749E+01   -.737E+01 0.279E-13 -.737E+01   -.147E+00 0.000E+00 -.147E+00   -.263E-02 -.765E-14 -.263E-02
   0.727E+01 0.103E+02 0.240E+01   -.734E+01 -.103E+02 -.207E+01   0.258E-01 -.240E-01 -.372E+00   -.265E-02 -.583E-02 -.293E-02
   0.240E+01 0.103E+02 0.727E+01   -.207E+01 -.103E+02 -.734E+01   -.372E+00 -.240E-01 0.258E-01   -.293E-02 -.582E-02 -.265E-02
 -----------------------------------------------------------------------------------------------
   0.578E-02 0.463E-12 0.578E-02   0.711E-14 -.426E-13 0.195E-13   -.333E-15 -.520E-16 -.323E-15   -.253E-04 0.356E-14 -.253E-04
 
 
 POSITION                                       TOTAL-FORCE (eV/Angst)
 -----------------------------------------------------------------------------------
      3.03264      4.04353      3.03264         0.000000      0.000000      0.000000
      0.00719      0.00000      0.00719        -0.015443      0.000000     -0.015443
      1.99643      0.00000      1.99643         0.019587      0.000000      0.019587
      2.01749      2.06657      0.03920         0.048981      0.071403      0.043846
      0.03920      2.06657      2.01749         0.043846      0.071403      0.048981
      4.04538      0.00000      7.97591         0.026081      0.000000      0.048181
      6.17644      0.00000      2.01992        -0.048181      0.000000     -0.026081
      6.09403      1.99970      8.05830        -0.014234      0.055202      0.014234
      4.13603      1.84461      1.92927        -0.000331     -0.023628      0.000331
      8.08681      4.04353      8.08681         0.030425      0.000000      0.030425
      2.01749      6.02049      0.03920         0.048981     -0.071403      0.043846
      0.03920      6.02049      2.01749         0.043846     -0.071403      0.048981
      4.03359      4.04353      0.02598        -0.018857      0.000000      0.050548
      6.03929      4.04353      2.03173        -0.050548      0.000000      0.018857
      6.09403      6.08735      8.05830        -0.014234     -0.055202      0.014234
      4.13603      6.24245      1.92927        -0.000331      0.023628      0.000331
      7.97591      0.00000      4.04538         0.048181      0.000000      0.026081
      2.01992      0.00000      6.17644        -0.026081      0.000000     -0.048181
      1.92927      1.84461      4.13603         0.000331     -0.023628     -0.000331
      8.05830      1.99970      6.09403         0.014234      0.055202     -0.014234
      4.06886      0.00000      4.06886        -0.019587      0.000000     -0.019587
      6.05809      0.00000      6.05809         0.015443      0.000000      0.015443
      6.02609      2.06657      4.04781        -0.043846      0.071403     -0.048981
      4.04781      2.06657      6.02609        -0.048981      0.071403     -0.043846
      0.02598      4.04353      4.03359         0.050548      0.000000     -0.018857
      2.03173      4.04353      6.03929         0.018857      0.000000     -0.050548
      1.92927      6.24245      4.13603         0.000331      0.023628     -0.000331
      8.05830      6.08735      6.09403         0.014234     -0.055202     -0.014234
      6.06555      4.04353      6.06555        -0.030425      0.000000     -0.030425
      6.02609      6.02049      4.04781        -0.043846     -0.071403     -0.048981
      4.04781      6.02049      6.02609        -0.048981     -0.071403     -0.043846
 -----------------------------------------------------------------------------------
    total drift:                                0.005753      0.000000      0.005753


--------------------------------------------------------------------------------------------------------


    POTLOK:  cpu time    2.06: real time    1.93


--------------------------------------------------------------------------------------------------------


  FORCES: max atom, RMS     0.097057    0.062539
  FORCE total and by dimension    0.348202    0.071403
     LOOP+:  cpu time  801.89: real time  289.02
    4ORBIT:  cpu time    0.00: real time    0.00

 total amount of memory used by VASP on root node 133132. kBytes
========================================================================

   base      :    30000. kBytes
   nonl-proj :     4690. kBytes
   fftplans  :    30736. kBytes
   grid      :    54743. kBytes
   one-center:       95. kBytes
   wavefun   :    12868. kBytes
 
  
  
 General timing and accounting informations for this job:
 ========================================================
  
                  Total CPU time used (sec):      809.455
                            User time (sec):      802.872
                          System time (sec):        6.583
                         Elapsed time (sec):      292.923
  
                   Maximum memory used (kb):           0.
                   Average memory used (kb):           0.
  
                          Minor page faults:       128718
                          Major page faults:           30
                 Voluntary context switches:         5092
