<?xml version="1.0" encoding="ISO-8859-1"?>
<modeling>
 <generator>
  <i name="program" type="string">vasp </i>
  <i name="version" type="string">5.2.2  </i>
  <i name="subversion" type="string">15Apr09 complex  parallel </i>
  <i name="platform" type="string">LinuxIFC </i>
  <i name="date" type="string">2014 04 24 </i>
  <i name="time" type="string">12:42:23 </i>
 </generator>
 <incar>
  <i type="string" name="PREC">accurate</i>
  <i type="int" name="IALGO">    48</i>
  <i type="int" name="IBRION">    -1</i>
  <i name="EDIFFG">      0.05000000</i>
  <i type="int" name="NSW">     0</i>
  <i type="int" name="ISIF">     2</i>
  <i name="ENCUT">    300.00000000</i>
  <i name="NELECT">     92.00000000</i>
  <i type="int" name="ISMEAR">     1</i>
  <i name="SIGMA">      0.20000000</i>
  <i type="logical" name="LWAVE"> F  </i>
  <i type="logical" name="LCHARG"> F  </i>
  <i type="logical" name="LPEAD"> F  </i>
  <i type="logical" name="LCALCPOL"> F  </i>
  <i type="logical" name="LCALCEPS"> F  </i>
  <v name="EFIELD_PEAD">      0.00000000      0.00000000      0.00000000</v>
  <i type="logical" name="LEFG"> F  </i>
 </incar>
 <kpoints>
  <generation param="Monkhorst-Pack">
   <v type="int" name="divisions">       2        2        2 </v>
   <v name="usershift">      0.00000000       0.00000000       0.00000000 </v>
   <v name="genvec1">      0.50000000       0.00000000       0.00000000 </v>
   <v name="genvec2">      0.00000000       0.50000000       0.00000000 </v>
   <v name="genvec3">      0.00000000       0.00000000       0.50000000 </v>
   <v name="shift">      0.50000000       0.50000000       0.50000000 </v>
  </generation>
  <varray name="kpointlist" >
   <v>       0.25000000       0.25000000       0.25000000 </v>
   <v>      -0.25000000       0.25000000       0.25000000 </v>
  </varray>
  <varray name="weights" >
   <v>       0.50000000 </v>
   <v>       0.50000000 </v>
  </varray>
 </kpoints>
 <parameters>
  <separator name="general" >
   <i type="string" name="SYSTEM">unknown system</i>
   <i type="logical" name="LCOMPAT"> F  </i>
  </separator>
  <separator name="electronic" >
   <i type="string" name="PREC">accura</i>
   <i name="ENMAX">    300.00000000</i>
   <i name="ENAUG">    291.05200000</i>
   <i name="EDIFF">      0.00010000</i>
   <i type="int" name="IALGO">    48</i>
   <i type="int" name="IWAVPR">    10</i>
   <i type="int" name="NBANDS">    62</i>
   <i name="NELECT">     92.00000000</i>
   <separator name="electronic smearing" >
    <i type="int" name="ISMEAR">     1</i>
    <i name="SIGMA">      0.20000000</i>
   </separator>
   <separator name="electronic projectors" >
    <i type="logical" name="LREAL"> F  </i>
    <v name="ROPT">      0.00000000      0.00000000</v>
    <i type="int" name="LMAXPAW">  -100</i>
    <i type="int" name="LMAXMIX">     2</i>
   </separator>
   <separator name="electronic startup" >
    <i type="int" name="ISTART">     0</i>
    <i type="int" name="ICHARG">     2</i>
    <i type="int" name="INIWAV">     1</i>
   </separator>
   <separator name="electronic spin" >
    <i type="int" name="ISPIN">     1</i>
    <i type="logical" name="LNONCOLLINEAR"> F  </i>
    <v name="MAGMOM">      1.00000000      1.00000000      1.00000000      1.00000000      1.00000000      1.00000000      1.00000000      1.00000000      1.00000000      1.00000000      1.00000000      1.00000000      1.00000000      1.00000000      1.00000000      1.00000000      1.00000000      1.00000000      1.00000000      1.00000000
      1.00000000      1.00000000      1.00000000      1.00000000      1.00000000      1.00000000      1.00000000      1.00000000      1.00000000      1.00000000      1.00000000</v>
    <i name="NUPDOWN">     -1.00000000</i>
    <i type="logical" name="LSORBIT"> F  </i>
    <v name="SAXIS">      0.00000000      0.00000000      1.00000000</v>
    <i type="logical" name="LSPIRAL"> F  </i>
    <v name="QSPIRAL">      0.00000000      0.00000000      0.00000000</v>
    <i type="logical" name="LZEROZ"> F  </i>
   </separator>
   <separator name="electronic exchange-correlation" >
    <i type="logical" name="LASPH"> F  </i>
    <i type="logical" name="LMETAGGA"> F  </i>
   </separator>
   <separator name="electronic convergence" >
    <i type="int" name="NELM">    60</i>
    <i type="int" name="NELMDL">   -12</i>
    <i type="int" name="NELMIN">     2</i>
    <i name="ENINI">    300.00000000</i>
    <separator name="electronic convergence detail" >
     <i type="logical" name="LDIAG"> T  </i>
     <i name="WEIMIN">      0.00000000</i>
     <i name="EBREAK">      0.00000040</i>
     <i name="DEPER">      0.30000000</i>
     <i type="int" name="NRMM">     4</i>
     <i name="TIME">      0.40000000</i>
    </separator>
   </separator>
   <separator name="electronic mixer" >
    <i name="AMIX">      0.40000000</i>
    <i name="BMIX">      1.00000000</i>
    <i name="AMIN">      0.10000000</i>
    <i name="AMIX_MAG">      1.60000000</i>
    <i name="BMIX_MAG">      1.00000000</i>
    <separator name="electronic mixer details" >
     <i type="int" name="IMIX">     4</i>
     <i type="int" name="MAXMIX">   -45</i>
     <i name="WC">    100.00000000</i>
     <i type="int" name="INIMIX">     1</i>
     <i type="int" name="MIXPRE">     1</i>
     <i type="int" name="MREMOVE">     5</i>
    </separator>
   </separator>
   <separator name="electronic dipolcorrection" >
    <i type="logical" name="LDIPOL"> F  </i>
    <i type="logical" name="LMONO"> F  </i>
    <i type="int" name="IDIPOL">     0</i>
    <i name="EPSILON">      1.00000000</i>
    <v name="DIPOL">   -100.00000000   -100.00000000   -100.00000000</v>
    <i name="EFIELD">      0.00000000</i>
   </separator>
  </separator>
  <separator name="grids" >
   <i type="int" name="NGX">    48</i>
   <i type="int" name="NGY">    48</i>
   <i type="int" name="NGZ">    48</i>
   <i type="int" name="NGXF">    96</i>
   <i type="int" name="NGYF">    96</i>
   <i type="int" name="NGZF">    96</i>
   <i type="logical" name="ADDGRID"> F  </i>
  </separator>
  <separator name="ionic" >
   <i type="int" name="NSW">     0</i>
   <i type="int" name="IBRION">    -1</i>
   <i type="int" name="ISIF">     2</i>
   <i name="PSTRESS">      0.00000000</i>
   <i name="EDIFFG">      0.05000000</i>
   <i type="int" name="NFREE">     0</i>
   <i name="POTIM">      0.50000000</i>
   <i name="SMASS">     -3.00000000</i>
  </separator>
  <separator name="ionic md" >
   <i name="TEBEG">      0.00010000</i>
   <i name="TEEND">      0.00010000</i>
   <i type="int" name="NBLOCK">     1</i>
   <i type="int" name="KBLOCK">     1</i>
   <i type="int" name="NPACO">   256</i>
   <i name="APACO">     16.00000000</i>
  </separator>
  <separator name="symmetry" >
   <i type="int" name="ISYM">     2</i>
   <i name="SYMPREC">      0.00001000</i>
  </separator>
  <separator name="dos" >
   <i type="logical" name="LORBIT"> F  </i>
   <v name="RWIGS">     -1.00000000     -1.00000000</v>
   <i type="int" name="NEDOS">   301</i>
   <i name="EMIN">     10.00000000</i>
   <i name="EMAX">    -10.00000000</i>
   <i name="EFERMI">      0.00000000</i>
  </separator>
  <separator name="writing" >
   <i type="int" name="NWRITE">     2</i>
   <i type="logical" name="LWAVE"> F  </i>
   <i type="logical" name="LCHARG"> F  </i>
   <i type="logical" name="LPARD"> F  </i>
   <i type="logical" name="LVTOT"> F  </i>
   <i type="logical" name="LELF"> F  </i>
   <i type="logical" name="LOPTICS"> F  </i>
   <v name="STM">      0.00000000      0.00000000      0.00000000      0.00000000      0.00000000</v>
  </separator>
  <separator name="performance" >
   <i type="int" name="NPAR">     1</i>
   <i type="int" name="NSIM">     4</i>
   <i type="int" name="NBLK">    32</i>
   <i type="logical" name="LPLANE"> T  </i>
   <i type="logical" name="LSCALAPACK"> F  </i>
   <i type="logical" name="LSCAAWARE"> F  </i>
   <i type="logical" name="LSCALU"> F  </i>
   <i type="logical" name="LASYNC"> F  </i>
  </separator>
  <separator name="miscellaneous" >
   <i type="int" name="IDIOT">     3</i>
   <i type="logical" name="LMUSIC"> F  </i>
   <v name="POMASS">     24.30500000     26.98200000</v>
   <i type="logical" name="LCORR"> T  </i>
  </separator>
  <i type="logical" name="LREAL_COMPAT"> F  </i>
  <i type="logical" name="GGA_COMPAT"> T  </i>
  <i type="logical" name="LBERRY"> F  </i>
  <i type="int" name="ICORELEVEL">     0</i>
  <i type="logical" name="LDAU"> F  </i>
  <i type="int" name="I_CONSTRAINED_M">     0</i>
  <separator name="electronic exchange-correlation" >
   <i type="string" name="GGA">--</i>
   <i type="int" name="VOSKOWN">     0</i>
   <i type="logical" name="LHFCALC"> F  </i>
   <i type="logical" name="LHFONE"> F  </i>
   <i type="logical" name="LRHFCALC"> F  </i>
   <i type="logical" name="LTHOMAS"> F  </i>
   <i type="logical" name="LMODELHF"> F  </i>
   <i name="ENCUTFOCK">      0.00000000</i>
   <i name="ENCUT4O">     -1.00000000</i>
   <i type="int" name="EXXOEP">     0</i>
   <i type="int" name="FOURORBIT">     0</i>
   <i name="AEXX">      0.00000000</i>
   <i name="HFALPHA">      0.00000000</i>
   <i name="ALDAX">      1.00000000</i>
   <i name="AGGAX">      1.00000000</i>
   <i name="ALDAC">      1.00000000</i>
   <i name="AGGAC">      1.00000000</i>
   <i type="int" name="NKREDX">     1</i>
   <i type="int" name="NKREDY">     1</i>
   <i type="int" name="NKREDZ">     1</i>
   <i type="logical" name="SHIFTRED"> F  </i>
   <i type="logical" name="ODDONLY"> F  </i>
   <i type="logical" name="EVENONLY"> F  </i>
   <i type="int" name="LMAXFOCK">     0</i>
   <i type="int" name="NMAXFOCKAE">     0</i>
   <i name="HFSCREEN">      0.00000000</i>
   <i name="HFSCREENC">      0.00000000</i>
  </separator>
  <separator name="model GW" >
   <i type="int" name="MODEL_GW">     0</i>
   <i name="MODEL_EPS0">     10.23671437</i>
   <i name="MODEL_ALPHA">      1.00000000</i>
  </separator>
  <separator name="linear response parameters" >
   <i type="logical" name="LEPSILON"> F  </i>
   <i type="logical" name="LRPA"> F  </i>
   <i type="logical" name="LNABLA"> F  </i>
   <i type="logical" name="LVEL"> F  </i>
   <i type="int" name="KINTER">     0</i>
   <i name="CSHIFT">      0.10000000</i>
   <i name="OMEGAMAX">     -1.00000000</i>
  </separator>
  <separator name="orbital magnetization" >
   <i type="logical" name="ORBITALMAG"> F  </i>
   <i type="logical" name="LMAGBLOCH"> F  </i>
   <i type="logical" name="LCHIMAG"> F  </i>
   <i type="logical" name="LGAUGE"> T  </i>
   <i type="int" name="MAGATOM">     0</i>
   <v name="MAGDIPOL">      0.00000000      0.00000000      0.00000000</v>
   <v name="AVECCONST">      0.00000000      0.00000000      0.00000000</v>
  </separator>
  <separator name="response functions" >
   <i type="logical" name="LRPA"> T  </i>
   <i type="logical" name="LTCTE"> F  </i>
   <i type="logical" name="LTETE"> F  </i>
   <i type="logical" name="L2ORDER"> F  </i>
   <i type="logical" name="LGWLF"> F  </i>
   <i name="ENCUTGW">    200.00000000</i>
   <i name="ENCUTGWSOFT">     -2.00000000</i>
   <i name="ENCUTLF">     -1.00000000</i>
   <i type="int" name="LMAXMP2">    -1</i>
   <i name="SCISSOR">      0.00000000</i>
   <i type="int" name="NOMEGA">     0</i>
   <i type="int" name="NOMEGAR">     0</i>
   <i type="int" name="NBANDSGW">    -1</i>
   <i type="int" name="NBANDSLF">    -1</i>
   <i type="int" name="NELM">     1</i>
   <i type="int" name="DIM">     3</i>
   <i type="int" name="ANTIRES">     0</i>
   <i type="logical" name="LUSEW"> F  </i>
   <i name="OMEGAMAX">    -30.00000000</i>
   <i name="OMEGATL">   -200.00000000</i>
   <i type="int" name="OMEGAGRID">     0</i>
   <i name="CSHIFT">     -0.10000000</i>
   <i type="logical" name="SELFENERGY"> F  </i>
   <i type="logical" name="LSPECTRAL"> F  </i>
   <i type="logical" name="ODDONLYGW"> F  </i>
   <i type="logical" name="EVENONLYGW"> F  </i>
   <i type="int" name="NKREDLFX">     1</i>
   <i type="int" name="NKREDLFY">     1</i>
   <i type="int" name="NKREDLFZ">     1</i>
   <i type="int" name="MAXMEM">  1024</i>
   <i type="int" name="TELESCOPE">     0</i>
  </separator>
 </parameters>
 <atominfo>
  <atoms>      31 </atoms>
  <types>       2 </types>
  <array name="atoms" >
   <dimension dim="1">ion</dimension>
   <field type="string">element</field>
   <field type="int">atomtype</field>
   <set>
    <rc><c>Mg</c><c>   1</c></rc>
    <rc><c>Al</c><c>   2</c></rc>
    <rc><c>Al</c><c>   2</c></rc>
    <rc><c>Al</c><c>   2</c></rc>
    <rc><c>Al</c><c>   2</c></rc>
    <rc><c>Al</c><c>   2</c></rc>
    <rc><c>Al</c><c>   2</c></rc>
    <rc><c>Al</c><c>   2</c></rc>
    <rc><c>Al</c><c>   2</c></rc>
    <rc><c>Al</c><c>   2</c></rc>
    <rc><c>Al</c><c>   2</c></rc>
    <rc><c>Al</c><c>   2</c></rc>
    <rc><c>Al</c><c>   2</c></rc>
    <rc><c>Al</c><c>   2</c></rc>
    <rc><c>Al</c><c>   2</c></rc>
    <rc><c>Al</c><c>   2</c></rc>
    <rc><c>Al</c><c>   2</c></rc>
    <rc><c>Al</c><c>   2</c></rc>
    <rc><c>Al</c><c>   2</c></rc>
    <rc><c>Al</c><c>   2</c></rc>
    <rc><c>Al</c><c>   2</c></rc>
    <rc><c>Al</c><c>   2</c></rc>
    <rc><c>Al</c><c>   2</c></rc>
    <rc><c>Al</c><c>   2</c></rc>
    <rc><c>Al</c><c>   2</c></rc>
    <rc><c>Al</c><c>   2</c></rc>
    <rc><c>Al</c><c>   2</c></rc>
    <rc><c>Al</c><c>   2</c></rc>
    <rc><c>Al</c><c>   2</c></rc>
    <rc><c>Al</c><c>   2</c></rc>
    <rc><c>Al</c><c>   2</c></rc>
   </set>
  </array>
  <array name="atomtypes" >
   <dimension dim="1">type</dimension>
   <field type="int">atomspertype</field>
   <field type="string">element</field>
   <field>mass</field>
   <field>valence</field>
   <field type="string">pseudopotential</field>
   <set>
    <rc><c>   1</c><c>Mg</c><c>     24.30500000</c><c>      2.00000000</c><c> PAW_PBE Mg 05Jan2001                   </c></rc>
    <rc><c>  30</c><c>Al</c><c>     26.98200000</c><c>      3.00000000</c><c> PAW_PBE Al 04Jan2001                   </c></rc>
   </set>
  </array>
 </atominfo>
 <structure name="initialpos" >
  <crystal>
   <varray name="basis" >
    <v>       8.08705400       0.00000000       0.00000000 </v>
    <v>       0.00000000       8.08705400       0.00000000 </v>
    <v>       0.00000000       0.00000000       8.08705400 </v>
   </varray>
   <i name="volume">    528.89690930 </i>
   <varray name="rec_basis" >
    <v>       0.12365442       0.00000000       0.00000000 </v>
    <v>       0.00000000       0.12365442       0.00000000 </v>
    <v>       0.00000000       0.00000000       0.12365442 </v>
   </varray>
  </crystal>
  <varray name="positions" >
   <v>       0.37499900       0.50000000       0.37499900 </v>
   <v>       0.00088900       0.00000000       0.00088900 </v>
   <v>       0.24686700       0.00000000       0.24686700 </v>
   <v>       0.24947100       0.25554000       0.00484700 </v>
   <v>       0.00484700       0.25554000       0.24947100 </v>
   <v>       0.50022900       0.00000000       0.98625600 </v>
   <v>       0.76374400       0.00000000       0.24977200 </v>
   <v>       0.75355400       0.24727200       0.99644500 </v>
   <v>       0.51143800       0.22809400       0.23856300 </v>
   <v>       0.99997000       0.50000000       0.99997000 </v>
   <v>       0.24947100       0.74446000       0.00484700 </v>
   <v>       0.00484700       0.74446000       0.24947100 </v>
   <v>       0.49877100       0.50000000       0.00321300 </v>
   <v>       0.74678500       0.50000000       0.25123200 </v>
   <v>       0.75355400       0.75272800       0.99644500 </v>
   <v>       0.51143800       0.77190600       0.23856300 </v>
   <v>       0.98625600       0.00000000       0.50022900 </v>
   <v>       0.24977200       0.00000000       0.76374400 </v>
   <v>       0.23856300       0.22809400       0.51143800 </v>
   <v>       0.99644500       0.24727200       0.75355400 </v>
   <v>       0.50313300       0.00000000       0.50313300 </v>
   <v>       0.74911000       0.00000000       0.74911000 </v>
   <v>       0.74515300       0.25554000       0.50052900 </v>
   <v>       0.50052900       0.25554000       0.74515300 </v>
   <v>       0.00321300       0.50000000       0.49877100 </v>
   <v>       0.25123200       0.50000000       0.74678500 </v>
   <v>       0.23856300       0.77190600       0.51143800 </v>
   <v>       0.99644500       0.75272800       0.75355400 </v>
   <v>       0.75003200       0.50000000       0.75003200 </v>
   <v>       0.74515300       0.74446000       0.50052900 </v>
   <v>       0.50052900       0.74446000       0.74515300 </v>
  </varray>
 </structure>
 <calculation>
  <scstep>
   <time name="diag">    4.66    2.96</time>
   <time name="diis">   21.35    6.81</time>
   <time name="orth">    0.33    0.08</time>
   <time name="total">   28.32   11.79</time>
   <energy>
    <i name="alphaZ">     -7.38312591 </i>
    <i name="ewald">  -2176.44036747 </i>
    <i name="hartreedc">    -27.67285033 </i>
    <i name="XCdc">   -796.31408595 </i>
    <i name="pawpsdc">   1078.21717227 </i>
    <i name="pawaedc">   -108.50372521 </i>
    <i name="eentropy">     -0.06022684 </i>
    <i name="bandstr">    709.13630064 </i>
    <i name="atom">   1629.13144109 </i>
    <i name="e_fr_energy">    300.11053230 </i>
    <i name="e_wo_entrp">    300.17075914 </i>
    <i name="e_0_energy">    300.13060791 </i>
   </energy>
  </scstep>
  <scstep>
   <time name="diag">    4.59    2.94</time>
   <time name="diis">   21.21    6.78</time>
   <time name="orth">    0.33    0.08</time>
   <time name="total">   26.14    9.81</time>
   <energy>
    <i name="e_fr_energy">    -12.31574521 </i>
    <i name="e_wo_entrp">    -12.27320013 </i>
    <i name="e_0_energy">    -12.30156352 </i>
   </energy>
  </scstep>
  <scstep>
   <time name="diag">    4.59    2.94</time>
   <time name="diis">   21.72    6.83</time>
   <time name="orth">    0.33    0.08</time>
   <time name="total">   26.65    9.86</time>
   <energy>
    <i name="e_fr_energy">    -86.35805534 </i>
    <i name="e_wo_entrp">    -86.32947199 </i>
    <i name="e_0_energy">    -86.34852755 </i>
   </energy>
  </scstep>
  <scstep>
   <time name="diag">    4.66    2.95</time>
   <time name="diis">   21.58    6.82</time>
   <time name="orth">    0.33    0.08</time>
   <time name="total">   26.59    9.85</time>
   <energy>
    <i name="e_fr_energy">   -102.50415381 </i>
    <i name="e_wo_entrp">   -102.50719668 </i>
    <i name="e_0_energy">   -102.50516810 </i>
   </energy>
  </scstep>
  <scstep>
   <time name="diag">    4.49    2.93</time>
   <time name="diis">   21.46    6.80</time>
   <time name="orth">    0.33    0.08</time>
   <time name="total">   26.29    9.82</time>
   <energy>
    <i name="e_fr_energy">   -108.74977931 </i>
    <i name="e_wo_entrp">   -108.70767862 </i>
    <i name="e_0_energy">   -108.73574575 </i>
   </energy>
  </scstep>
  <scstep>
   <time name="diag">    4.51    2.93</time>
   <time name="diis">   21.39    6.80</time>
   <time name="orth">    0.33    0.08</time>
   <time name="total">   26.25    9.82</time>
   <energy>
    <i name="e_fr_energy">   -111.27131162 </i>
    <i name="e_wo_entrp">   -111.23200976 </i>
    <i name="e_0_energy">   -111.25821100 </i>
   </energy>
  </scstep>
  <scstep>
   <time name="diag">    4.53    2.93</time>
   <time name="diis">   21.32    6.81</time>
   <time name="orth">    0.33    0.08</time>
   <time name="total">   26.19    9.83</time>
   <energy>
    <i name="e_fr_energy">   -112.31702833 </i>
    <i name="e_wo_entrp">   -112.28958216 </i>
    <i name="e_0_energy">   -112.30787961 </i>
   </energy>
  </scstep>
  <scstep>
   <time name="diag">    4.57    2.94</time>
   <time name="diis">   21.73    6.83</time>
   <time name="orth">    0.33    0.08</time>
   <time name="total">   26.66    9.86</time>
   <energy>
    <i name="e_fr_energy">   -112.79913176 </i>
    <i name="e_wo_entrp">   -112.78031140 </i>
    <i name="e_0_energy">   -112.79285830 </i>
   </energy>
  </scstep>
  <scstep>
   <time name="diag">    4.58    2.94</time>
   <time name="diis">   56.46   15.83</time>
   <time name="orth">    0.33    0.08</time>
   <time name="total">   61.39   18.86</time>
   <energy>
    <i name="e_fr_energy">   -113.18289126 </i>
    <i name="e_wo_entrp">   -113.18402479 </i>
    <i name="e_0_energy">   -113.18326910 </i>
   </energy>
  </scstep>
  <scstep>
   <time name="diag">    4.51    2.93</time>
   <time name="diis">   52.78   14.69</time>
   <time name="orth">    0.33    0.08</time>
   <time name="total">   57.63   17.71</time>
   <energy>
    <i name="e_fr_energy">   -113.24085692 </i>
    <i name="e_wo_entrp">   -113.23433086 </i>
    <i name="e_0_energy">   -113.23868157 </i>
   </energy>
  </scstep>
  <scstep>
   <time name="diag">    4.95    3.35</time>
   <time name="diis">   45.42   12.67</time>
   <time name="orth">    0.33    0.08</time>
   <time name="total">   50.72   16.11</time>
   <energy>
    <i name="e_fr_energy">   -113.24309333 </i>
    <i name="e_wo_entrp">   -113.23614246 </i>
    <i name="e_0_energy">   -113.24077637 </i>
   </energy>
  </scstep>
  <scstep>
   <time name="diag">    4.58    2.94</time>
   <time name="diis">   36.60   10.38</time>
   <time name="orth">    0.33    0.08</time>
   <time name="total">   43.34   15.12</time>
   <energy>
    <i name="e_fr_energy">   -113.24313503 </i>
    <i name="e_wo_entrp">   -113.23618784 </i>
    <i name="e_0_energy">   -113.24081930 </i>
   </energy>
  </scstep>
  <scstep>
   <time name="diag">    4.65    2.96</time>
   <time name="diis">   45.45   13.16</time>
   <time name="orth">    0.33    0.08</time>
   <time name="total">   54.14   19.82</time>
   <energy>
    <i name="e_fr_energy">   -112.41051063 </i>
    <i name="e_wo_entrp">   -112.40734474 </i>
    <i name="e_0_energy">   -112.40945533 </i>
   </energy>
  </scstep>
  <scstep>
   <time name="diag">    4.66    2.96</time>
   <time name="diis">   49.36   14.10</time>
   <time name="orth">    0.33    0.08</time>
   <time name="total">   58.07   20.75</time>
   <energy>
    <i name="e_fr_energy">   -112.17052579 </i>
    <i name="e_wo_entrp">   -112.16413995 </i>
    <i name="e_0_energy">   -112.16839717 </i>
   </energy>
  </scstep>
  <scstep>
   <time name="diag">    4.66    2.96</time>
   <time name="diis">   49.06   14.02</time>
   <time name="orth">    0.33    0.08</time>
   <time name="total">   57.86   20.69</time>
   <energy>
    <i name="e_fr_energy">   -112.11053515 </i>
    <i name="e_wo_entrp">   -112.10481002 </i>
    <i name="e_0_energy">   -112.10862677 </i>
   </energy>
  </scstep>
  <scstep>
   <time name="diag">    4.65    2.96</time>
   <time name="diis">   50.55   14.37</time>
   <time name="orth">    0.33    0.08</time>
   <time name="total">   59.40   21.03</time>
   <energy>
    <i name="e_fr_energy">   -112.10885192 </i>
    <i name="e_wo_entrp">   -112.10302955 </i>
    <i name="e_0_energy">   -112.10691113 </i>
   </energy>
  </scstep>
  <scstep>
   <time name="diag">    4.65    2.96</time>
   <time name="diis">   47.36   13.32</time>
   <time name="orth">    0.33    0.08</time>
   <time name="total">   56.26   20.01</time>
   <energy>
    <i name="e_fr_energy">   -112.10870901 </i>
    <i name="e_wo_entrp">   -112.10328668 </i>
    <i name="e_0_energy">   -112.10690157 </i>
   </energy>
  </scstep>
  <scstep>
   <time name="diag">    4.75    3.04</time>
   <time name="diis">   30.57    9.07</time>
   <time name="orth">    0.33    0.08</time>
   <time name="total">   37.74   14.14</time>
   <energy>
    <i name="alphaZ">     -7.38312591 </i>
    <i name="ewald">  -2176.44036747 </i>
    <i name="hartreedc">    -32.07570930 </i>
    <i name="XCdc">   -792.80206638 </i>
    <i name="pawpsdc">   1084.38603992 </i>
    <i name="pawaedc">   -115.16125776 </i>
    <i name="eentropy">     -0.00544389 </i>
    <i name="bandstr">    298.24177301 </i>
    <i name="atom">   1629.13144109 </i>
    <i name="e_fr_energy">   -112.10871669 </i>
    <i name="e_wo_entrp">   -112.10327280 </i>
    <i name="e_0_energy">   -112.10690206 </i>
   </energy>
  </scstep>
  <structure>
   <crystal>
    <varray name="basis" >
     <v>       8.08705400       0.00000000       0.00000000 </v>
     <v>       0.00000000       8.08705400       0.00000000 </v>
     <v>       0.00000000       0.00000000       8.08705400 </v>
    </varray>
    <i name="volume">    528.89690930 </i>
    <varray name="rec_basis" >
     <v>       0.12365442       0.00000000       0.00000000 </v>
     <v>       0.00000000       0.12365442       0.00000000 </v>
     <v>       0.00000000       0.00000000       0.12365442 </v>
    </varray>
   </crystal>
   <varray name="positions" >
    <v>       0.37499900       0.50000000       0.37499900 </v>
    <v>       0.00088900       0.00000000       0.00088900 </v>
    <v>       0.24686700       0.00000000       0.24686700 </v>
    <v>       0.24947100       0.25554000       0.00484700 </v>
    <v>       0.00484700       0.25554000       0.24947100 </v>
    <v>       0.50022900       0.00000000       0.98625600 </v>
    <v>       0.76374400       0.00000000       0.24977200 </v>
    <v>       0.75355400       0.24727200       0.99644500 </v>
    <v>       0.51143800       0.22809400       0.23856300 </v>
    <v>       0.99997000       0.50000000       0.99997000 </v>
    <v>       0.24947100       0.74446000       0.00484700 </v>
    <v>       0.00484700       0.74446000       0.24947100 </v>
    <v>       0.49877100       0.50000000       0.00321300 </v>
    <v>       0.74678500       0.50000000       0.25123200 </v>
    <v>       0.75355400       0.75272800       0.99644500 </v>
    <v>       0.51143800       0.77190600       0.23856300 </v>
    <v>       0.98625600       0.00000000       0.50022900 </v>
    <v>       0.24977200       0.00000000       0.76374400 </v>
    <v>       0.23856300       0.22809400       0.51143800 </v>
    <v>       0.99644500       0.24727200       0.75355400 </v>
    <v>       0.50313300       0.00000000       0.50313300 </v>
    <v>       0.74911000       0.00000000       0.74911000 </v>
    <v>       0.74515300       0.25554000       0.50052900 </v>
    <v>       0.50052900       0.25554000       0.74515300 </v>
    <v>       0.00321300       0.50000000       0.49877100 </v>
    <v>       0.25123200       0.50000000       0.74678500 </v>
    <v>       0.23856300       0.77190600       0.51143800 </v>
    <v>       0.99644500       0.75272800       0.75355400 </v>
    <v>       0.75003200       0.50000000       0.75003200 </v>
    <v>       0.74515300       0.74446000       0.50052900 </v>
    <v>       0.50052900       0.74446000       0.74515300 </v>
   </varray>
  </structure>
  <varray name="forces" >
   <v>       0.00000000       0.00000000       0.00000000 </v>
   <v>      -0.01544289       0.00000000      -0.01544289 </v>
   <v>       0.01958711       0.00000000       0.01958711 </v>
   <v>       0.04898088       0.07140309       0.04384646 </v>
   <v>       0.04384646       0.07140309       0.04898088 </v>
   <v>       0.02608132       0.00000000       0.04818055 </v>
   <v>      -0.04818055       0.00000000      -0.02608132 </v>
   <v>      -0.01423415       0.05520205       0.01423415 </v>
   <v>      -0.00033120      -0.02362759       0.00033120 </v>
   <v>       0.03042505       0.00000000       0.03042505 </v>
   <v>       0.04898088      -0.07140309       0.04384646 </v>
   <v>       0.04384646      -0.07140309       0.04898088 </v>
   <v>      -0.01885717       0.00000000       0.05054773 </v>
   <v>      -0.05054773       0.00000000       0.01885717 </v>
   <v>      -0.01423415      -0.05520205       0.01423415 </v>
   <v>      -0.00033120       0.02362759       0.00033120 </v>
   <v>       0.04818055       0.00000000       0.02608132 </v>
   <v>      -0.02608132       0.00000000      -0.04818055 </v>
   <v>       0.00033120      -0.02362759      -0.00033120 </v>
   <v>       0.01423415       0.05520205      -0.01423415 </v>
   <v>      -0.01958711       0.00000000      -0.01958711 </v>
   <v>       0.01544289       0.00000000       0.01544289 </v>
   <v>      -0.04384646       0.07140309      -0.04898088 </v>
   <v>      -0.04898088       0.07140309      -0.04384646 </v>
   <v>       0.05054773       0.00000000      -0.01885717 </v>
   <v>       0.01885717       0.00000000      -0.05054773 </v>
   <v>       0.00033120       0.02362759      -0.00033120 </v>
   <v>       0.01423415      -0.05520205      -0.01423415 </v>
   <v>      -0.03042505       0.00000000      -0.03042505 </v>
   <v>      -0.04384646      -0.07140309      -0.04898088 </v>
   <v>      -0.04898088      -0.07140309      -0.04384646 </v>
  </varray>
  <varray name="stress" >
   <v>      -2.91713318       0.00000000       2.59174551 </v>
   <v>       0.00000000      18.41273396       0.00000000 </v>
   <v>       2.59174551       0.00000000      -2.91713318 </v>
  </varray>
  <energy>
   <i name="e_fr_energy">   -112.10871669 </i>
   <i name="e_wo_entrp">   -112.10690206 </i>
   <i name="e_0_energy">     -0.00544389 </i>
  </energy>
  <time name="totalsc">  801.89  289.02</time>
  <eigenvalues>
   <array>
    <dimension dim="1">band</dimension>
    <dimension dim="2">kpoint</dimension>
    <dimension dim="3">spin</dimension>
    <field>eigene</field>
    <field>occ</field>
    <set>
     <set comment="spin 1">
      <set comment="kpoint 1">
       <r>   -2.9832    1.0000 </r>
       <r>   -1.9605    1.0000 </r>
       <r>   -1.8788    1.0000 </r>
       <r>   -1.6419    1.0000 </r>
       <r>   -0.8120    1.0000 </r>
       <r>   -0.7608    1.0000 </r>
       <r>   -0.3541    1.0000 </r>
       <r>    0.2571    1.0000 </r>
       <r>    0.3217    1.0000 </r>
       <r>    0.5324    1.0000 </r>
       <r>    0.6161    1.0000 </r>
       <r>    1.3448    1.0000 </r>
       <r>    1.3638    1.0000 </r>
       <r>    1.4058    1.0000 </r>
       <r>    1.5394    1.0000 </r>
       <r>    1.8140    1.0000 </r>
       <r>    1.9402    1.0000 </r>
       <r>    2.7008    1.0000 </r>
       <r>    2.7085    1.0000 </r>
       <r>    2.9045    1.0000 </r>
       <r>    3.5303    1.0000 </r>
       <r>    3.5916    1.0000 </r>
       <r>    3.6288    1.0000 </r>
       <r>    3.6771    1.0000 </r>
       <r>    3.7361    1.0000 </r>
       <r>    4.0506    1.0000 </r>
       <r>    4.5308    1.0000 </r>
       <r>    4.5581    1.0000 </r>
       <r>    4.6450    1.0000 </r>
       <r>    4.8072    1.0000 </r>
       <r>    4.8648    1.0000 </r>
       <r>    4.8705    1.0000 </r>
       <r>    4.9292    1.0000 </r>
       <r>    5.1107    1.0000 </r>
       <r>    5.2064    1.0000 </r>
       <r>    5.7267    1.0000 </r>
       <r>    5.8930    1.0000 </r>
       <r>    6.3556    1.0000 </r>
       <r>    6.7099    1.0000 </r>
       <r>    6.7757    1.0000 </r>
       <r>    6.7865    1.0000 </r>
       <r>    6.9443    1.0000 </r>
       <r>    6.9893    1.0000 </r>
       <r>    7.0941    1.0000 </r>
       <r>    7.1497    1.0000 </r>
       <r>    7.7894    0.8196 </r>
       <r>    7.8876    0.4356 </r>
       <r>    8.0064    0.0508 </r>
       <r>    8.0362    0.0052 </r>
       <r>    8.1622   -0.0298 </r>
       <r>    8.1986   -0.0216 </r>
       <r>    8.2072   -0.0197 </r>
       <r>    8.3738   -0.0011 </r>
       <r>    8.5367    0.0000 </r>
       <r>    9.0567    0.0000 </r>
       <r>    9.1372    0.0000 </r>
       <r>    9.1880    0.0000 </r>
       <r>    9.3544    0.0000 </r>
       <r>    9.3718    0.0000 </r>
       <r>    9.5154    0.0000 </r>
       <r>   10.0344    0.0000 </r>
       <r>   10.9500    0.0000 </r>
      </set>
      <set comment="kpoint 2">
       <r>   -2.9862    1.0000 </r>
       <r>   -1.9508    1.0000 </r>
       <r>   -1.8155    1.0000 </r>
       <r>   -1.7224    1.0000 </r>
       <r>   -0.8255    1.0000 </r>
       <r>   -0.6092    1.0000 </r>
       <r>   -0.5489    1.0000 </r>
       <r>    0.2615    1.0000 </r>
       <r>    0.3985    1.0000 </r>
       <r>    0.4414    1.0000 </r>
       <r>    0.6990    1.0000 </r>
       <r>    1.3934    1.0000 </r>
       <r>    1.4281    1.0000 </r>
       <r>    1.4928    1.0000 </r>
       <r>    1.4934    1.0000 </r>
       <r>    1.7681    1.0000 </r>
       <r>    1.8426    1.0000 </r>
       <r>    2.6214    1.0000 </r>
       <r>    2.7731    1.0000 </r>
       <r>    2.8397    1.0000 </r>
       <r>    3.5377    1.0000 </r>
       <r>    3.5879    1.0000 </r>
       <r>    3.6341    1.0000 </r>
       <r>    3.6811    1.0000 </r>
       <r>    3.8118    1.0000 </r>
       <r>    3.9631    1.0000 </r>
       <r>    4.5980    1.0000 </r>
       <r>    4.6514    1.0000 </r>
       <r>    4.6778    1.0000 </r>
       <r>    4.6990    1.0000 </r>
       <r>    4.7161    1.0000 </r>
       <r>    4.9494    1.0000 </r>
       <r>    4.9734    1.0000 </r>
       <r>    5.0595    1.0000 </r>
       <r>    5.1750    1.0000 </r>
       <r>    5.7463    1.0000 </r>
       <r>    6.1175    1.0000 </r>
       <r>    6.1776    1.0000 </r>
       <r>    6.7062    1.0000 </r>
       <r>    6.7468    1.0000 </r>
       <r>    6.9177    1.0000 </r>
       <r>    7.0237    1.0000 </r>
       <r>    7.0329    1.0000 </r>
       <r>    7.0704    1.0000 </r>
       <r>    7.1413    1.0000 </r>
       <r>    7.8378    0.6437 </r>
       <r>    7.9566    0.1760 </r>
       <r>    7.9949    0.0743 </r>
       <r>    8.0669   -0.0221 </r>
       <r>    8.1494   -0.0323 </r>
       <r>    8.1718   -0.0278 </r>
       <r>    8.1881   -0.0241 </r>
       <r>    8.2168   -0.0176 </r>
       <r>    8.2642   -0.0091 </r>
       <r>    9.0953    0.0000 </r>
       <r>    9.1468    0.0000 </r>
       <r>    9.2728    0.0000 </r>
       <r>    9.3780    0.0000 </r>
       <r>    9.4082    0.0000 </r>
       <r>    9.4878    0.0000 </r>
       <r>    9.9957    0.0000 </r>
       <r>   10.0782    0.0000 </r>
      </set>
     </set>
    </set>
   </array>
  </eigenvalues>
  <separator name="orbital magnetization" >
   <v name="MAGDIPOLOUT">      0.00000000      0.00000000      0.00000000</v>
  </separator>
  <dos>
   <i name="efermi">      7.87233034 </i>
   <total>
    <array>
     <dimension dim="1">gridpoints</dimension>
     <dimension dim="2">spin</dimension>
     <field>energy</field>
     <field>total</field>
     <field>integrated</field>
     <set>
      <set comment="spin 1">
       <r>  -4.9862   0.0000   0.0000 </r>
       <r>  -4.9264   0.0000   0.0000 </r>
       <r>  -4.8666   0.0000   0.0000 </r>
       <r>  -4.8068   0.0000   0.0000 </r>
       <r>  -4.7470   0.0000   0.0000 </r>
       <r>  -4.6873   0.0000   0.0000 </r>
       <r>  -4.6275   0.0000   0.0000 </r>
       <r>  -4.5677   0.0000   0.0000 </r>
       <r>  -4.5079   0.0000   0.0000 </r>
       <r>  -4.4481   0.0000   0.0000 </r>
       <r>  -4.3883   0.0000   0.0000 </r>
       <r>  -4.3285   0.0000   0.0000 </r>
       <r>  -4.2687   0.0000   0.0000 </r>
       <r>  -4.2090   0.0000   0.0000 </r>
       <r>  -4.1492   0.0000   0.0000 </r>
       <r>  -4.0894   0.0000   0.0000 </r>
       <r>  -4.0296   0.0000   0.0000 </r>
       <r>  -3.9698   0.0000   0.0000 </r>
       <r>  -3.9100   0.0000   0.0000 </r>
       <r>  -3.8502   0.0000   0.0000 </r>
       <r>  -3.7904   0.0000   0.0000 </r>
       <r>  -3.7307   0.0000   0.0000 </r>
       <r>  -3.6709  -0.0002   0.0000 </r>
       <r>  -3.6111  -0.0012  -0.0001 </r>
       <r>  -3.5513  -0.0062  -0.0005 </r>
       <r>  -3.4915  -0.0255  -0.0020 </r>
       <r>  -3.4317  -0.0832  -0.0070 </r>
       <r>  -3.3719  -0.2105  -0.0196 </r>
       <r>  -3.3121  -0.3874  -0.0427 </r>
       <r>  -3.2524  -0.4149  -0.0675 </r>
       <r>  -3.1926   0.1685  -0.0574 </r>
       <r>  -3.1328   1.8591   0.0537 </r>
       <r>  -3.0730   4.5807   0.3276 </r>
       <r>  -3.0132   7.2592   0.7616 </r>
       <r>  -2.9534   8.3574   1.2612 </r>
       <r>  -2.8936   7.1581   1.6892 </r>
       <r>  -2.8338   4.4423   1.9548 </r>
       <r>  -2.7741   1.7526   2.0596 </r>
       <r>  -2.7143   0.1193   2.0667 </r>
       <r>  -2.6545  -0.4229   2.0414 </r>
       <r>  -2.5947  -0.3808   2.0187 </r>
       <r>  -2.5349  -0.2077   2.0062 </r>
       <r>  -2.4751  -0.1002   2.0003 </r>
       <r>  -2.4153  -0.0982   1.9944 </r>
       <r>  -2.3555  -0.2134   1.9816 </r>
       <r>  -2.2958  -0.4465   1.9549 </r>
       <r>  -2.2360  -0.6671   1.9150 </r>
       <r>  -2.1762  -0.4412   1.8887 </r>
       <r>  -2.1164   0.9433   1.9451 </r>
       <r>  -2.0566   4.0008   2.1843 </r>
       <r>  -1.9968   8.3553   2.6838 </r>
       <r>  -1.9370  12.6177   3.4382 </r>
       <r>  -1.8772  15.2544   4.3502 </r>
       <r>  -1.8175  15.6749   5.2874 </r>
       <r>  -1.7577  14.3760   6.1469 </r>
       <r>  -1.6979  12.1329   6.8723 </r>
       <r>  -1.6381   9.3581   7.4318 </r>
       <r>  -1.5783   6.2733   7.8068 </r>
       <r>  -1.5185   3.3244   8.0056 </r>
       <r>  -1.4587   1.1029   8.0715 </r>
       <r>  -1.3989  -0.0954   8.0658 </r>
       <r>  -1.3392  -0.4604   8.0383 </r>
       <r>  -1.2794  -0.4368   8.0122 </r>
       <r>  -1.2196  -0.4043   7.9880 </r>
       <r>  -1.1598  -0.5226   7.9568 </r>
       <r>  -1.1000  -0.6641   7.9171 </r>
       <r>  -1.0402  -0.3407   7.8967 </r>
       <r>  -0.9804   1.1769   7.9670 </r>
       <r>  -0.9206   4.2839   8.2232 </r>
       <r>  -0.8609   8.3330   8.7214 </r>
       <r>  -0.8011  11.7337   9.4229 </r>
       <r>  -0.7413  13.1583  10.2096 </r>
       <r>  -0.6815  12.6256  10.9645 </r>
       <r>  -0.6217  11.1551  11.6314 </r>
       <r>  -0.5619   9.5849  12.2045 </r>
       <r>  -0.5021   8.1253  12.6903 </r>
       <r>  -0.4423   6.7898  13.0962 </r>
       <r>  -0.3826   5.6234  13.4324 </r>
       <r>  -0.3228   4.5034  13.7016 </r>
       <r>  -0.2630   3.1995  13.8929 </r>
       <r>  -0.2032   1.7337  13.9966 </r>
       <r>  -0.1434   0.4132  14.0213 </r>
       <r>  -0.0836  -0.5092  13.9908 </r>
       <r>  -0.0238  -0.9585  13.9335 </r>
       <r>   0.0360  -0.7373  13.8895 </r>
       <r>   0.0957   0.6993  13.9313 </r>
       <r>   0.1555   3.8670  14.1625 </r>
       <r>   0.2153   8.4814  14.6695 </r>
       <r>   0.2751  13.1907  15.4582 </r>
       <r>   0.3349  16.3588  16.4362 </r>
       <r>   0.3947  17.2315  17.4665 </r>
       <r>   0.4545  16.3159  18.4420 </r>
       <r>   0.5143  14.7022  19.3210 </r>
       <r>   0.5740  13.1126  20.1049 </r>
       <r>   0.6338  11.5040  20.7927 </r>
       <r>   0.6936   9.4232  21.3561 </r>
       <r>   0.7534   6.6945  21.7564 </r>
       <r>   0.8132   3.7583  21.9811 </r>
       <r>   0.8730   1.3389  22.0611 </r>
       <r>   0.9328  -0.1714  22.0509 </r>
       <r>   0.9926  -0.9497  21.9941 </r>
       <r>   1.0523  -1.3813  21.9115 </r>
       <r>   1.1121  -1.4186  21.8267 </r>
       <r>   1.1719  -0.1851  21.8156 </r>
       <r>   1.2317   3.6599  22.0344 </r>
       <r>   1.2915  10.6644  22.6720 </r>
       <r>   1.3513  19.2865  23.8251 </r>
       <r>   1.4111  26.0632  25.3834 </r>
       <r>   1.4709  27.7167  27.0405 </r>
       <r>   1.5306  23.6313  28.4533 </r>
       <r>   1.5904  16.5087  29.4403 </r>
       <r>   1.6502  10.5485  30.0710 </r>
       <r>   1.7100   8.5533  30.5824 </r>
       <r>   1.7698  10.1864  31.1914 </r>
       <r>   1.8296  12.6832  31.9497 </r>
       <r>   1.8894  13.2577  32.7424 </r>
       <r>   1.9492  11.0497  33.4030 </r>
       <r>   2.0089   7.1772  33.8321 </r>
       <r>   2.0687   3.3989  34.0353 </r>
       <r>   2.1285   0.8431  34.0857 </r>
       <r>   2.1883  -0.3628  34.0640 </r>
       <r>   2.2481  -0.7225  34.0208 </r>
       <r>   2.3079  -0.8048  33.9727 </r>
       <r>   2.3677  -0.8389  33.9226 </r>
       <r>   2.4275  -0.5480  33.8898 </r>
       <r>   2.4872   0.7527  33.9348 </r>
       <r>   2.5470   3.7072  34.1564 </r>
       <r>   2.6068   8.2511  34.6498 </r>
       <r>   2.6666  13.2616  35.4426 </r>
       <r>   2.7264  17.0158  36.4600 </r>
       <r>   2.7862  18.1844  37.5472 </r>
       <r>   2.8460  16.5134  38.5345 </r>
       <r>   2.9058  12.7534  39.2969 </r>
       <r>   2.9655   8.1630  39.7850 </r>
       <r>   3.0253   3.9941  40.0238 </r>
       <r>   3.0851   1.0508  40.0866 </r>
       <r>   3.1449  -0.5762  40.0522 </r>
       <r>   3.2047  -1.3518  39.9713 </r>
       <r>   3.2645  -1.6999  39.8697 </r>
       <r>   3.3243  -1.3344  39.7899 </r>
       <r>   3.3841   0.9289  39.8455 </r>
       <r>   3.4438   6.4264  40.2297 </r>
       <r>   3.5036  15.1533  41.1357 </r>
       <r>   3.5634  24.7450  42.6151 </r>
       <r>   3.6232  31.3303  44.4883 </r>
       <r>   3.6830  32.0426  46.4040 </r>
       <r>   3.7428  27.0871  48.0235 </r>
       <r>   3.8026  19.4846  49.1884 </r>
       <r>   3.8623  12.8284  49.9554 </r>
       <r>   3.9221   9.0356  50.4956 </r>
       <r>   3.9819   7.6844  50.9550 </r>
       <r>   4.0417   7.0406  51.3760 </r>
       <r>   4.1015   5.6812  51.7156 </r>
       <r>   4.1613   3.4009  51.9190 </r>
       <r>   4.2211   0.9280  51.9744 </r>
       <r>   4.2809  -0.8447  51.9239 </r>
       <r>   4.3406  -1.1632  51.8544 </r>
       <r>   4.4004   0.7620  51.9000 </r>
       <r>   4.4602   5.6094  52.2353 </r>
       <r>   4.5200  13.1226  53.0199 </r>
       <r>   4.5798  21.4361  54.3015 </r>
       <r>   4.6396  27.7210  55.9589 </r>
       <r>   4.6994  30.0929  57.7581 </r>
       <r>   4.7592  29.0615  59.4956 </r>
       <r>   4.8189  26.8521  61.1010 </r>
       <r>   4.8787  25.2179  62.6087 </r>
       <r>   4.9385  24.1941  64.0552 </r>
       <r>   4.9983  22.9379  65.4266 </r>
       <r>   5.0581  21.0617  66.6858 </r>
       <r>   5.1179  18.6774  67.8025 </r>
       <r>   5.1777  15.6785  68.7399 </r>
       <r>   5.2375  11.7735  69.4438 </r>
       <r>   5.2972   7.2271  69.8759 </r>
       <r>   5.3570   3.0274  70.0569 </r>
       <r>   5.4168   0.1609  70.0665 </r>
       <r>   5.4766  -0.9898  70.0073 </r>
       <r>   5.5364  -0.4843  69.9784 </r>
       <r>   5.5962   1.5227  70.0694 </r>
       <r>   5.6560   4.6108  70.3451 </r>
       <r>   5.7158   7.7479  70.8083 </r>
       <r>   5.7755   9.6016  71.3823 </r>
       <r>   5.8353   9.4636  71.9481 </r>
       <r>   5.8951   7.8284  72.4162 </r>
       <r>   5.9549   6.0416  72.7774 </r>
       <r>   6.0147   5.3614  73.0979 </r>
       <r>   6.0745   6.1085  73.4632 </r>
       <r>   6.1343   7.4872  73.9108 </r>
       <r>   6.1941   8.3074  74.4075 </r>
       <r>   6.2538   7.9660  74.8837 </r>
       <r>   6.3136   6.6538  75.2816 </r>
       <r>   6.3734   4.7960  75.5683 </r>
       <r>   6.4332   2.7928  75.7353 </r>
       <r>   6.4930   1.4494  75.8219 </r>
       <r>   6.5528   2.1402  75.9499 </r>
       <r>   6.6126   5.8610  76.3003 </r>
       <r>   6.6724  11.8715  77.0101 </r>
       <r>   6.7321  17.6909  78.0678 </r>
       <r>   6.7919  21.1124  79.3300 </r>
       <r>   6.8517  22.3249  80.6648 </r>
       <r>   6.9115  23.5044  82.0700 </r>
       <r>   6.9713  26.0715  83.6288 </r>
       <r>   7.0311  28.7771  85.3493 </r>
       <r>   7.0909  28.7807  87.0700 </r>
       <r>   7.1507  24.4018  88.5289 </r>
       <r>   7.2104  16.6851  89.5265 </r>
       <r>   7.2702   8.5270  90.0363 </r>
       <r>   7.3300   2.5062  90.1861 </r>
       <r>   7.3898  -0.5771  90.1516 </r>
       <r>   7.4496  -1.5154  90.0610 </r>
       <r>   7.5094  -1.5079  89.9709 </r>
       <r>   7.5692  -1.1506  89.9021 </r>
       <r>   7.6290  -0.2009  89.8901 </r>
       <r>   7.6887   1.9720  90.0080 </r>
       <r>   7.7485   5.6836  90.3478 </r>
       <r>   7.8083  10.5499  90.9786 </r>
       <r>   7.8681  15.7764  91.9218 </r>
       <r>   7.9279  20.8203  93.1666 </r>
       <r>   7.9877  25.7477  94.7060 </r>
       <r>   8.0475  30.8578  96.5509 </r>
       <r>   8.1073  35.7076  98.6857 </r>
       <r>   8.1670  38.4408 100.9840 </r>
       <r>   8.2268  36.7045 103.1785 </r>
       <r>   8.2866  29.9274 104.9678 </r>
       <r>   8.3464  20.4943 106.1931 </r>
       <r>   8.4062  12.0916 106.9160 </r>
       <r>   8.4660   6.9051 107.3288 </r>
       <r>   8.5258   4.5775 107.6025 </r>
       <r>   8.5856   3.4488 107.8087 </r>
       <r>   8.6453   2.2717 107.9445 </r>
       <r>   8.7051   0.8335 107.9944 </r>
       <r>   8.7649  -0.4685 107.9664 </r>
       <r>   8.8247  -1.1125 107.8998 </r>
       <r>   8.8845  -0.4662 107.8720 </r>
       <r>   8.9443   2.2083 108.0040 </r>
       <r>   9.0041   7.1495 108.4315 </r>
       <r>   9.0639  13.3064 109.2270 </r>
       <r>   9.1236  18.6088 110.3396 </r>
       <r>   9.1834  21.5838 111.6300 </r>
       <r>   9.2432  22.6397 112.9836 </r>
       <r>   9.3030  23.2698 114.3748 </r>
       <r>   9.3628  23.9931 115.8093 </r>
       <r>   9.4226  23.6134 117.2211 </r>
       <r>   9.4824  20.6627 118.4565 </r>
       <r>   9.5422  15.1487 119.3622 </r>
       <r>   9.6019   8.6836 119.8813 </r>
       <r>   9.6617   3.2162 120.0736 </r>
       <r>   9.7215  -0.1170 120.0666 </r>
       <r>   9.7813  -1.0967 120.0011 </r>
       <r>   9.8411   0.1380 120.0093 </r>
       <r>   9.9009   3.3074 120.2071 </r>
       <r>   9.9607   7.5211 120.6567 </r>
       <r>  10.0205  10.9868 121.3136 </r>
       <r>  10.0802  11.8569 122.0225 </r>
       <r>  10.1400   9.6748 122.6009 </r>
       <r>  10.1998   5.7971 122.9475 </r>
       <r>  10.2596   2.2261 123.0806 </r>
       <r>  10.3194   0.1302 123.0884 </r>
       <r>  10.3792  -0.5573 123.0551 </r>
       <r>  10.4390  -0.5108 123.0245 </r>
       <r>  10.4988  -0.3100 123.0060 </r>
       <r>  10.5585  -0.2084 122.9935 </r>
       <r>  10.6183  -0.2222 122.9803 </r>
       <r>  10.6781  -0.2220 122.9670 </r>
       <r>  10.7379   0.0452 122.9697 </r>
       <r>  10.7977   0.8482 123.0204 </r>
       <r>  10.8575   2.1846 123.1510 </r>
       <r>  10.9173   3.5519 123.3634 </r>
       <r>  10.9771   4.1780 123.6132 </r>
       <r>  11.0368   3.6558 123.8317 </r>
       <r>  11.0966   2.3269 123.9709 </r>
       <r>  11.1564   0.9580 124.0281 </r>
       <r>  11.2162   0.0976 124.0340 </r>
       <r>  11.2760  -0.2052 124.0217 </r>
       <r>  11.3358  -0.1957 124.0100 </r>
       <r>  11.3956  -0.1073 124.0036 </r>
       <r>  11.4554  -0.0427 124.0010 </r>
       <r>  11.5151  -0.0132 124.0002 </r>
       <r>  11.5749  -0.0032 124.0000 </r>
       <r>  11.6347  -0.0006 124.0000 </r>
       <r>  11.6945  -0.0001 124.0000 </r>
       <r>  11.7543   0.0000 124.0000 </r>
       <r>  11.8141   0.0000 124.0000 </r>
       <r>  11.8739   0.0000 124.0000 </r>
       <r>  11.9337   0.0000 124.0000 </r>
       <r>  11.9934   0.0000 124.0000 </r>
       <r>  12.0532   0.0000 124.0000 </r>
       <r>  12.1130   0.0000 124.0000 </r>
       <r>  12.1728   0.0000 124.0000 </r>
       <r>  12.2326   0.0000 124.0000 </r>
       <r>  12.2924   0.0000 124.0000 </r>
       <r>  12.3522   0.0000 124.0000 </r>
       <r>  12.4120   0.0000 124.0000 </r>
       <r>  12.4717   0.0000 124.0000 </r>
       <r>  12.5315   0.0000 124.0000 </r>
       <r>  12.5913   0.0000 124.0000 </r>
       <r>  12.6511   0.0000 124.0000 </r>
       <r>  12.7109   0.0000 124.0000 </r>
       <r>  12.7707   0.0000 124.0000 </r>
       <r>  12.8305   0.0000 124.0000 </r>
       <r>  12.8903   0.0000 124.0000 </r>
       <r>  12.9500   0.0000 124.0000 </r>
      </set>
     </set>
    </array>
   </total>
  </dos>
 </calculation>
 <structure name="finalpos" >
  <crystal>
   <varray name="basis" >
    <v>       8.08705400       0.00000000       0.00000000 </v>
    <v>       0.00000000       8.08705400       0.00000000 </v>
    <v>       0.00000000       0.00000000       8.08705400 </v>
   </varray>
   <i name="volume">    528.89690930 </i>
   <varray name="rec_basis" >
    <v>       0.12365442       0.00000000       0.00000000 </v>
    <v>       0.00000000       0.12365442       0.00000000 </v>
    <v>       0.00000000       0.00000000       0.12365442 </v>
   </varray>
  </crystal>
  <varray name="positions" >
   <v>       0.37499900       0.50000000       0.37499900 </v>
   <v>       0.00088900       0.00000000       0.00088900 </v>
   <v>       0.24686700       0.00000000       0.24686700 </v>
   <v>       0.24947100       0.25554000       0.00484700 </v>
   <v>       0.00484700       0.25554000       0.24947100 </v>
   <v>       0.50022900       0.00000000       0.98625600 </v>
   <v>       0.76374400       0.00000000       0.24977200 </v>
   <v>       0.75355400       0.24727200       0.99644500 </v>
   <v>       0.51143800       0.22809400       0.23856300 </v>
   <v>       0.99997000       0.50000000       0.99997000 </v>
   <v>       0.24947100       0.74446000       0.00484700 </v>
   <v>       0.00484700       0.74446000       0.24947100 </v>
   <v>       0.49877100       0.50000000       0.00321300 </v>
   <v>       0.74678500       0.50000000       0.25123200 </v>
   <v>       0.75355400       0.75272800       0.99644500 </v>
   <v>       0.51143800       0.77190600       0.23856300 </v>
   <v>       0.98625600       0.00000000       0.50022900 </v>
   <v>       0.24977200       0.00000000       0.76374400 </v>
   <v>       0.23856300       0.22809400       0.51143800 </v>
   <v>       0.99644500       0.24727200       0.75355400 </v>
   <v>       0.50313300       0.00000000       0.50313300 </v>
   <v>       0.74911000       0.00000000       0.74911000 </v>
   <v>       0.74515300       0.25554000       0.50052900 </v>
   <v>       0.50052900       0.25554000       0.74515300 </v>
   <v>       0.00321300       0.50000000       0.49877100 </v>
   <v>       0.25123200       0.50000000       0.74678500 </v>
   <v>       0.23856300       0.77190600       0.51143800 </v>
   <v>       0.99644500       0.75272800       0.75355400 </v>
   <v>       0.75003200       0.50000000       0.75003200 </v>
   <v>       0.74515300       0.74446000       0.50052900 </v>
   <v>       0.50052900       0.74446000       0.74515300 </v>
  </varray>
 </structure>
</modeling>
