       N       E                     dE             d eps       ncg     rms          rms(c)
RMM:   1     0.258200491137E+03    0.25820E+03   -0.16656E+04    72   0.563E+02
RMM:   2    -0.232823128904E+02   -0.28148E+03   -0.27332E+03    72   0.116E+02
RMM:   3    -0.753060918610E+02   -0.52024E+02   -0.51754E+02    72   0.368E+01
RMM:   4    -0.918545103049E+02   -0.16548E+02   -0.12659E+02    72   0.200E+01
RMM:   5    -0.990362735419E+02   -0.71818E+01   -0.49565E+01    72   0.111E+01
RMM:   6    -0.101600027804E+03   -0.25638E+01   -0.19253E+01    72   0.634E+00
RMM:   7    -0.102582470601E+03   -0.98244E+00   -0.81815E+00    72   0.367E+00
RMM:   8    -0.103013283553E+03   -0.43081E+00   -0.37751E+00    72   0.223E+00
RMM:   9    -0.103390109304E+03   -0.37683E+00   -0.33887E+00   148   0.139E+00
RMM:  10    -0.103430205196E+03   -0.40096E-01   -0.33077E-01   126   0.279E-01
RMM:  11    -0.103433009379E+03   -0.28042E-02   -0.20091E-02   120   0.616E-02
RMM:  12    -0.103433109994E+03   -0.10061E-03   -0.79542E-04    84   0.161E-02    0.622E+00
RMM:  13    -0.102888514975E+03    0.54460E+00   -0.68750E-02   144   0.742E-01    0.387E+00
RMM:  14    -0.102478553536E+03    0.40996E+00   -0.22732E-01   144   0.127E+00    0.152E-01
RMM:  15    -0.102478599736E+03   -0.46200E-04   -0.17047E-03   144   0.144E-01    0.391E-02
RMM:  16    -0.102478600583E+03   -0.84685E-06   -0.53901E-05    86   0.167E-02
   1 F= -.10247860E+03 E0= -.10236576E+03  d E =-.102479E+03
       N       E                     dE             d eps       ncg     rms          rms(c)
RMM:   1    -0.102733637084E+03   -0.25504E+00   -0.41780E+00   144   0.538E+00    0.911E-01
RMM:   2    -0.102715414761E+03    0.18222E-01   -0.14786E-02   144   0.341E-01    0.576E-01
RMM:   3    -0.102702416255E+03    0.12999E-01   -0.55803E-03   144   0.175E-01    0.238E-02
RMM:   4    -0.102702430791E+03   -0.14536E-04   -0.17534E-04    84   0.424E-02
   2 F= -.10270243E+03 E0= -.10258959E+03  d E =-.223830E+00
       N       E                     dE             d eps       ncg     rms          rms(c)
RMM:   1    -0.102742963735E+03   -0.40547E-01   -0.29562E-01   144   0.141E+00    0.239E-01
RMM:   2    -0.102741566568E+03    0.13972E-02   -0.88488E-04   124   0.829E-02    0.152E-01
RMM:   3    -0.102740516086E+03    0.10505E-02   -0.37810E-04   110   0.468E-02    0.685E-03
RMM:   4    -0.102740521193E+03   -0.51074E-05   -0.14784E-05    63   0.143E-02
   3 F= -.10274052E+03 E0= -.10262768E+03  d E =-.261921E+00
