 vasp.5.2.2 15Apr09 complex 
 executed on             LinuxIFC date 2017.03.17  11:18:27
 running on   12 nodes
 distr:  one band on    1 nodes,   12 groups


--------------------------------------------------------------------------------------------------------


 INCAR:
 POTCAR:   PAW_PBE Al 04Jan2001                   
 POTCAR:   PAW_PBE Al 04Jan2001                   
   VRHFIN =Al: s2p1                                                             
   LEXCH  = PE                                                                  
   EATOM  =    53.5387 eV,    3.9350 Ry                                         
                                                                                
   TITEL  = PAW_PBE Al 04Jan2001                                                
   LULTRA =        F    use ultrasoft PP ?                                      
   IUNSCR =        1    unscreen: 0-lin 1-nonlin 2-no                           
   RPACOR =    1.500    partial core radius                                     
   POMASS =   26.982; ZVAL   =    3.000    mass and valenz                      
   RCORE  =    1.900    outmost cutoff radius                                   
   RWIGS  =    2.650; RWIGS  =    1.402    wigner-seitz radius (au A)           
   ENMAX  =  240.300; ENMIN  =  180.225 eV                                      
   ICORE  =        2    local potential                                         
   LCOR   =        T    correct aug charges                                     
   LPAW   =        T    paw PP                                                  
   EAUG   =  291.052                                                            
   DEXC   =    -.041                                                            
   RMAX   =    2.974    core radius for proj-oper                               
   RAUG   =    1.300    factor for augmentation sphere                          
   RDEP   =    1.966    radius for radial grids                                 
   QCUT   =   -4.203; QGAM   =    8.405    optimization parameters              
                                                                                
   Description                                                                  
     l     E      TYP  RCUT    TYP  RCUT                                        
     0   .000     23  1.900                                                     
     0   .000     23  1.900                                                     
     1   .000     23  1.900                                                     
     1  1.000     23  1.900                                                     
     2   .000      7  1.900                                                     
  local pseudopotential read in
  partial core-charges read in
  atomic valenz-charges read in
  non local Contribution for L=           0  read in
    real space projection operators read in
  non local Contribution for L=           0  read in
    real space projection operators read in
  non local Contribution for L=           1  read in
    real space projection operators read in
  non local Contribution for L=           1  read in
    real space projection operators read in
    PAW grid and wavefunctions read in
 
   number of l-projection  operators is LMAX  =           4
   number of lm-projection operators is LMMAX =           8
 

 ----------------------------------------------------------------------------- 
|                                                                             |
|  ADVICE TO THIS USER RUNNING 'VASP/VAMP'   (HEAR YOUR MASTER'S VOICE ...):  |
|                                                                             |
|      You have a (more or less) 'large supercell' and for larger cells       |
|      it might be more efficient to use real space projection operators      |
|      So try LREAL= Auto  in the INCAR   file.                               |
|      Mind: If you want to do a very accurate calculations keep the          |
|      reciprocal projection scheme          (i.e. LREAL=.FALSE.)             |
|                                                                             |
 ----------------------------------------------------------------------------- 

 PAW_PBE Al 04Jan2001                   :
 energy of atom  1       EATOM=  -53.5387
 kinetic energy error for atom=    0.0011 (will be added to EATOM!!)
 
 
 POSCAR: Al32                                    
  positions in direct lattice
  velocities in cartesian coordinates
 exchange correlation table for  LEXCH =        8
   RHO(1)=    0.500       N(1)  =     2000
   RHO(2)=  100.500       N(2)  =     4000

 VTST: version 2.03d, (02/18/09)

 CHAIN: initializing optimizer
 
 OPT: Using VASP Conjugate-Gradient optimizer
 CHAIN: Read ICHAIN            0
 


--------------------------------------------------------------------------------------------------------


 ion  position               nearest neighbor table
   1  0.000  0.000  0.000-   2 2.86   3 2.86   4 2.86   6 2.86   7 2.86  11 2.86  12 2.86  15 2.86
                            18 2.86  20 2.86  22 2.86  28 2.86
   2  0.250  0.000  0.250-   1 2.86   3 2.86   4 2.86   5 2.86   8 2.86  11 2.86  12 2.86  16 2.86
                            17 2.86  19 2.86  21 2.86  27 2.86
   3  0.250  0.250  0.000-   1 2.86   2 2.86   4 2.86   5 2.86   8 2.86   9 2.86  10 2.86  13 2.86
                            18 2.86  20 2.86  24 2.86  26 2.86
   4  0.000  0.250  0.250-   1 2.86   2 2.86   3 2.86   6 2.86   7 2.86   9 2.86  10 2.86  14 2.86
                            17 2.86  19 2.86  23 2.86  25 2.86
   5  0.500  0.000  0.000-   2 2.86   3 2.86   6 2.86   7 2.86   8 2.86  11 2.86  15 2.86  16 2.86
                            18 2.86  22 2.86  24 2.86  32 2.86
   6  0.750  0.000  0.250-   1 2.86   4 2.86   5 2.86   7 2.86   8 2.86  12 2.86  15 2.86  16 2.86
                            17 2.86  21 2.86  23 2.86  31 2.86
   7  0.750  0.250  0.000-   1 2.86   4 2.86   5 2.86   6 2.86   8 2.86   9 2.86  13 2.86  14 2.86
                            20 2.86  22 2.86  24 2.86  30 2.86
   8  0.500  0.250  0.250-   2 2.86   3 2.86   5 2.86   6 2.86   7 2.86  10 2.86  13 2.86  14 2.86
                            19 2.86  21 2.86  23 2.86  29 2.86
   9  0.000  0.500  0.000-   3 2.86   4 2.86   7 2.86  10 2.86  11 2.86  12 2.86  14 2.86  15 2.86
                            20 2.86  26 2.86  28 2.86  30 2.86
  10  0.250  0.500  0.250-   3 2.86   4 2.86   8 2.86   9 2.86  11 2.86  12 2.86  13 2.86  16 2.86
                            19 2.86  25 2.86  27 2.86  29 2.86
  11  0.250  0.750  0.000-   1 2.86   2 2.86   5 2.86   9 2.86  10 2.86  12 2.86  13 2.86  16 2.86
                            18 2.86  26 2.86  28 2.86  32 2.86
  12  0.000  0.750  0.250-   1 2.86   2 2.86   6 2.86   9 2.86  10 2.86  11 2.86  14 2.86  15 2.86
                            17 2.86  25 2.86  27 2.86  31 2.86
  13  0.500  0.500  0.000-   3 2.86   7 2.86   8 2.86  10 2.86  11 2.86  14 2.86  15 2.86  16 2.86
                            24 2.86  26 2.86  30 2.86  32 2.86
  14  0.750  0.500  0.250-   4 2.86   7 2.86   8 2.86   9 2.86  12 2.86  13 2.86  15 2.86  16 2.86
                            23 2.86  25 2.86  29 2.86  31 2.86
  15  0.750  0.750  0.000-   1 2.86   5 2.86   6 2.86   9 2.86  12 2.86  13 2.86  14 2.86  16 2.86
                            22 2.86  28 2.86  30 2.86  32 2.86
  16  0.500  0.750  0.250-   2 2.86   5 2.86   6 2.86  10 2.86  11 2.86  13 2.86  14 2.86  15 2.86
                            21 2.86  27 2.86  29 2.86  31 2.86
  17  0.000  0.000  0.500-   2 2.86   4 2.86   6 2.86  12 2.86  18 2.86  19 2.86  20 2.86  22 2.86
                            23 2.86  27 2.86  28 2.86  31 2.86
  18  0.250  0.000  0.750-   1 2.86   3 2.86   5 2.86  11 2.86  17 2.86  19 2.86  20 2.86  21 2.86
                            24 2.86  27 2.86  28 2.86  32 2.86
  19  0.250  0.250  0.500-   2 2.86   4 2.86   8 2.86  10 2.86  17 2.86  18 2.86  20 2.86  21 2.86
                            24 2.86  25 2.86  26 2.86  29 2.86
  20  0.000  0.250  0.750-   1 2.86   3 2.86   7 2.86   9 2.86  17 2.86  18 2.86  19 2.86  22 2.86
                            23 2.86  25 2.86  26 2.86  30 2.86
  21  0.500  0.000  0.500-   2 2.86   6 2.86   8 2.86  16 2.86  18 2.86  19 2.86  22 2.86  23 2.86
                            24 2.86  27 2.86  31 2.86  32 2.86
  22  0.750  0.000  0.750-   1 2.86   5 2.86   7 2.86  15 2.86  17 2.86  20 2.86  21 2.86  23 2.86
                            24 2.86  28 2.86  31 2.86  32 2.86
  23  0.750  0.250  0.500-   4 2.86   6 2.86   8 2.86  14 2.86  17 2.86  20 2.86  21 2.86  22 2.86
                            24 2.86  25 2.86  29 2.86  30 2.86
  24  0.500  0.250  0.750-   3 2.86   5 2.86   7 2.86  13 2.86  18 2.86  19 2.86  21 2.86  22 2.86
                            23 2.86  26 2.86  29 2.86  30 2.86
  25  0.000  0.500  0.500-   4 2.86  10 2.86  12 2.86  14 2.86  19 2.86  20 2.86  23 2.86  26 2.86
                            27 2.86  28 2.86  30 2.86  31 2.86
  26  0.250  0.500  0.750-   3 2.86   9 2.86  11 2.86  13 2.86  19 2.86  20 2.86  24 2.86  25 2.86
                            27 2.86  28 2.86  29 2.86  32 2.86
  27  0.250  0.750  0.500-   2 2.86  10 2.86  12 2.86  16 2.86  17 2.86  18 2.86  21 2.86  25 2.86
                            26 2.86  28 2.86  29 2.86  32 2.86
  28  0.000  0.750  0.750-   1 2.86   9 2.86  11 2.86  15 2.86  17 2.86  18 2.86  22 2.86  25 2.86
                            26 2.86  27 2.86  30 2.86  31 2.86
  29  0.500  0.500  0.500-   8 2.86  10 2.86  14 2.86  16 2.86  19 2.86  23 2.86  24 2.86  26 2.86
                            27 2.86  30 2.86  31 2.86  32 2.86
  30  0.750  0.500  0.750-   7 2.86   9 2.86  13 2.86  15 2.86  20 2.86  23 2.86  24 2.86  25 2.86
                            28 2.86  29 2.86  31 2.86  32 2.86
  31  0.750  0.750  0.500-   6 2.86  12 2.86  14 2.86  16 2.86  17 2.86  21 2.86  22 2.86  25 2.86
                            28 2.86  29 2.86  30 2.86  32 2.86
  32  0.500  0.750  0.750-   5 2.86  11 2.86  13 2.86  15 2.86  18 2.86  21 2.86  22 2.86  26 2.86
                            27 2.86  29 2.86  30 2.86  31 2.86
 
  LATTYP: Found a simple cubic cell.
 ALAT       =     8.1000000000
  
  Lattice vectors:
  
 A1 = (   8.1000000000,   0.0000000000,   0.0000000000)
 A2 = (   0.0000000000,   8.1000000000,   0.0000000000)
 A3 = (   0.0000000000,   0.0000000000,   8.1000000000)
 Subroutine PRICEL returns following result:
 
  LATTYP: Found a face centered cubic cell.
 ALAT       =     4.0500000000
  
  Lattice vectors:
  
 A1 = (   2.0250000000,   2.0250000000,   0.0000000000)
 A2 = (   2.0250000000,   0.0000000000,  -2.0250000000)
 A3 = (   0.0000000000,   2.0250000000,  -2.0250000000)
 
  32 primitive cells build up your supercell.
 

Analysis of symmetry for initial positions (statically):

 Routine SETGRP: Setting up the symmetry group for a 
 simple cubic supercell.


 Subroutine GETGRP returns: Found 48 space group operations
 (whereof 48 operations were pure point group operations)
 out of a pool of 48 trial point group operations.


The static configuration has the point symmetry O_h .

Analysis of symmetry for dynamics (positions and initial velocities):

 Subroutine DYNSYM returns: Found 48 space group operations
 (whereof 48 operations were pure point group operations)
 out of a pool of 48 trial space group operations
 (whereof 48 operations were pure point group operations)
 and found also    32 'primitive' translations


The dynamic configuration has the point symmetry O_h .
 
 
 KPOINTS: Automatic kpoint scheme                 

Automatic generation of k-mesh.
 
 Subroutine IBZKPT returns following result:
 ===========================================
 
 Found      1 irreducible k-points:
 
 Following reciprocal coordinates:
            Coordinates               Weight
  0.000000  0.000000  0.000000      1.000000
 
 Following cartesian coordinates:
            Coordinates               Weight
  0.000000  0.000000  0.000000      1.000000
 


--------------------------------------------------------------------------------------------------------




 Dimension of arrays:
   k-points           NKPTS =      1   k-points in BZ     NKDIM =      1   number of bands    NBANDS=     72
   number of dos      NEDOS =    301   number of ions     NIONS =     32
   non local maximal  LDIM  =      4   non local SUM 2l+1 LMDIM =      8
   total plane-waves  NPLWV = 110592
   max r-space proj   IRMAX =      1   max aug-charges    IRDMAX=   8298
   dimension x,y,z NGX =    48 NGY =   48 NGZ =   48
   dimension x,y,z NGXF=    96 NGYF=   96 NGZF=   96
   support grid    NGXF=    96 NGYF=   96 NGZF=   96
   ions per type =              32
 NGX,Y,Z   is equivalent  to a cutoff of   9.85,  9.85,  9.85 a.u.
 NGXF,Y,Z  is equivalent  to a cutoff of  19.70, 19.70, 19.70 a.u.


 I would recommend the setting:
   dimension x,y,z NGX =    46 NGY =   46 NGZ =   46
 SYSTEM =  unknown system                          
 POSCAR =  Al32                                    

 Startparameter for this run:
   NWRITE =      2    write-flag & timer
   PREC   = accura    medium, high low
   ISTART =      0    job   : 0-new  1-cont  2-samecut
   ICHARG =      2    charge: 1-file 2-atom 10-const
   ISPIN  =      1    spin polarized calculation?
   LNONCOLLINEAR =      F non collinear calculations
   LSORBIT =      F    spin-orbit coupling
   INIWAV =      1    electr: 0-lowe 1-rand  2-diag
   LASPH  =      F    aspherical Exc in radial PAW
   METAGGA=      F    non-selfconsistent MetaGGA calc.

 Electronic Relaxation 1
   ENCUT  =  300.0 eV  22.05 Ry    4.70 a.u.  11.44 11.44 11.44*2*pi/ulx,y,z
   ENINI  =  300.0     initial cutoff
   ENAUG  =  291.1 eV  augmentation charge cutoff
   NELM   =     60;   NELMIN=  2; NELMDL=-12     # of ELM steps 
   EDIFF  = 0.1E-03   stopping-criterion for ELM
   LREAL  =      F    real-space projection
   LCOMPAT=      F    compatible to vasp.4.4
   LREAL_COMPAT= F    compatible to vasp.4.5.1-3
   GGA_COMPAT  = T    GGA compatible to vasp.4.4-vasp.4.6
   LMAXPAW     = -100 max onsite density
   LMAXMIX     =    2 max onsite mixed and CHGCAR
   VOSKOWN=      0    Vosko Wilk Nusair interpolation
   ROPT   =    0.00000
 Ionic relaxation
   EDIFFG = 0.5E-01   stopping-criterion for IOM
   NSW    =    191    number of steps for IOM
   NBLOCK =      1;   KBLOCK =    191    inner block; outer block 
   IBRION =      2    ionic relax: 0-MD 1-quasi-New 2-CG
   NFREE  =      1    steps in history (QN), initial steepest desc. (CG)
   ISIF   =      3    stress and relaxation
   IWAVPR =     11    prediction:  0-non 1-charg 2-wave 3-comb
   ISYM   =      2    0-nonsym 1-usesym 2-fastsym
   LCORR  =      T    Harris-Foulkes like correction to forces

   POTIM  = 0.5000    time-step for ionic-motion
   TEIN   =    0.0    initial temperature
   TEBEG  =    0.0;   TEEND  =   0.0 temperature during run
   SMASS  =  -3.00    Nose mass-parameter (am)
   estimated Nose-frequenzy (Omega)   =  0.10E-29 period in steps =****** mass=  -0.150E-26a.u.
   NPACO  =    256;   APACO  = 16.0  distance and # of slots for P.C.
   PSTRESS=    0.0 pullay stress

  Mass of Ions in am
   POMASS =  26.98
  Ionic Valenz
   ZVAL   =   3.00
  Atomic Wigner-Seitz radii
   RWIGS  =  -1.00
   NELECT =      96.0000    total number of electrons
   NUPDOWN=      -1.0000    fix difference up-down

 DOS related values:
   EMIN   =  10.00;   EMAX   =-10.00  energy-range for DOS
   EFERMI =   0.00
   ISMEAR =     1;   SIGMA  =   0.20  broadening in eV -4-tet -1-fermi 0-gaus

 Electronic relaxation 2 (details)
   IALGO  =     48    algorithm
   LDIAG  =      T    sub-space diagonalisation
   IMIX   =      4    mixing-type and parameters
     AMIX     =   0.40;   BMIX     =  1.00
     AMIX_MAG =   1.60;   BMIX_MAG =  1.00
     AMIN     =   0.10
     WC   =   100.;   INIMIX=   1;  MIXPRE=   1

 Intra band minimization:
   WEIMIN = 0.0010     energy-eigenvalue tresh-hold
   EBREAK =  0.38E-06  absolut break condition
   DEPER  =   0.30     relativ break condition  

   TIME   =   0.40     timestep for ELM

  volume/ion in A,a.u.               =      16.61       112.07
  Fermi-wavevector in a.u.,A,eV,Ry     =   0.925437  1.748822 11.652489  0.856434
  Thomas-Fermi vector in A             =   2.051291
 
 Write flags
   LWAVE  =      F    write WAVECAR
   LCHARG =      F    write CHGCAR
   LVTOT  =      F    write LOCPOT, local potential
   LELF   =      F    write electronic localiz. function (ELF)
   LORBIT =      0    0 simple, 1 ext, 2 COOP (PROOUT)


 Dipole corrections
   LMONO  =      F    monopole corrections only (constant potential shift)
   LDIPOL =      F    correct potential (dipole corrections)
   IDIPOL =      0    1-x, 2-y, 3-z, 4-all directions 
   EPSILON=  1.0000000 bulk dielectric constant

 Exchange correlation treatment:
   GGA     =    --    GGA type
   LEXCH   =     8    internal setting for exchange type
   VOSKOWN=      0    Vosko Wilk Nusair interpolation
   LHFCALC =     F    Hartree Fock is set to
   LHFONE  =     F    Hartree Fock one center treatment
   AEXX    =    0.0000 exact exchange contribution

 Linear response parameters
   LEPSILON=     F    determine dielectric tensor
   LRPA    =     F    only Hartree local field effects (RPA)
   LNABLA  =     F    use nabla operator in PAW spheres
   LVEL    =     F    velocity operator in full k-point grid
   LINTERFAST=   F  fast interpolation
   KINTER  =     0    interpolate to denser k-point grid
   CSHIFT  =0.1000    complex shift for real part using Kramers Kronig
   OMEGAMAX=  -1.0    maximum frequency

 Orbital magnetization related:
   ORBITALMAG=     F  switch on orbital magnetization
   LCHIMAG   =     F  perturbation theory with respect to B field



--------------------------------------------------------------------------------------------------------


 conjugate gradient relaxation of ions
 charge density and potential will be updated during run
 non-spin polarized calculation
 RMM-DIIS sequential band-by-band
 perform sub-space diagonalisation
    before iterative eigenvector-optimisation
 modified Broyden-mixing scheme, WC =      100.0
 initial mixing is a Kerker type mixing with AMIX =  0.4000 and BMIX =      1.0000
 Hartree-type preconditioning will be used
 using additional bands           24
 reciprocal scheme for non local part
 use partial core corrections
 calculate Harris-corrections to forces 
   (improved forces if not selfconsistent)
 use gradient corrections 
 use of overlap-Matrix (Vanderbilt PP)
 Methfessel and Paxton  Order N= 1 SIGMA  =   0.20


--------------------------------------------------------------------------------------------------------


  energy-cutoff  :      300.00
  volume of cell :      531.44
      direct lattice vectors                 reciprocal lattice vectors
     8.100000000  0.000000000  0.000000000     0.123456790  0.000000000  0.000000000
     0.000000000  8.100000000  0.000000000     0.000000000  0.123456790  0.000000000
     0.000000000  0.000000000  8.100000000     0.000000000  0.000000000  0.123456790

  length of vectors
     8.100000000  8.100000000  8.100000000     0.123456790  0.123456790  0.123456790


 
 k-points in units of 2pi/SCALE and weight: Automatic kpoint scheme                 
   0.00000000  0.00000000  0.00000000       1.000
 
 k-points in reciprocal lattice and weights: Automatic kpoint scheme                 
   0.00000000  0.00000000  0.00000000       1.000
 
 position of ions in fractional coordinates (direct lattice) 
   0.00000000  0.00000000  0.00000000
   0.25000000  0.00000000  0.25000000
   0.25000000  0.25000000  0.00000000
   0.00000000  0.25000000  0.25000000
   0.50000000  0.00000000  0.00000000
   0.75000000  0.00000000  0.25000000
   0.75000000  0.25000000  0.00000000
   0.50000000  0.25000000  0.25000000
   0.00000000  0.50000000  0.00000000
   0.25000000  0.50000000  0.25000000
   0.25000000  0.75000000  0.00000000
   0.00000000  0.75000000  0.25000000
   0.50000000  0.50000000  0.00000000
   0.75000000  0.50000000  0.25000000
   0.75000000  0.75000000  0.00000000
   0.50000000  0.75000000  0.25000000
   0.00000000  0.00000000  0.50000000
   0.25000000  0.00000000  0.75000000
   0.25000000  0.25000000  0.50000000
   0.00000000  0.25000000  0.75000000
   0.50000000  0.00000000  0.50000000
   0.75000000  0.00000000  0.75000000
   0.75000000  0.25000000  0.50000000
   0.50000000  0.25000000  0.75000000
   0.00000000  0.50000000  0.50000000
   0.25000000  0.50000000  0.75000000
   0.25000000  0.75000000  0.50000000
   0.00000000  0.75000000  0.75000000
   0.50000000  0.50000000  0.50000000
   0.75000000  0.50000000  0.75000000
   0.75000000  0.75000000  0.50000000
   0.50000000  0.75000000  0.75000000
 
 position of ions in cartesian coordinates  (Angst):
   0.00000000  0.00000000  0.00000000
   2.02500000  0.00000000  2.02500000
   2.02500000  2.02500000  0.00000000
   0.00000000  2.02500000  2.02500000
   4.05000000  0.00000000  0.00000000
   6.07500000  0.00000000  2.02500000
   6.07500000  2.02500000  0.00000000
   4.05000000  2.02500000  2.02500000
   0.00000000  4.05000000  0.00000000
   2.02500000  4.05000000  2.02500000
   2.02500000  6.07500000  0.00000000
   0.00000000  6.07500000  2.02500000
   4.05000000  4.05000000  0.00000000
   6.07500000  4.05000000  2.02500000
   6.07500000  6.07500000  0.00000000
   4.05000000  6.07500000  2.02500000
   0.00000000  0.00000000  4.05000000
   2.02500000  0.00000000  6.07500000
   2.02500000  2.02500000  4.05000000
   0.00000000  2.02500000  6.07500000
   4.05000000  0.00000000  4.05000000
   6.07500000  0.00000000  6.07500000
   6.07500000  2.02500000  4.05000000
   4.05000000  2.02500000  6.07500000
   0.00000000  4.05000000  4.05000000
   2.02500000  4.05000000  6.07500000
   2.02500000  6.07500000  4.05000000
   0.00000000  6.07500000  6.07500000
   4.05000000  4.05000000  4.05000000
   6.07500000  4.05000000  6.07500000
   6.07500000  6.07500000  4.05000000
   4.05000000  6.07500000  6.07500000
 


--------------------------------------------------------------------------------------------------------


 k-point  1 :  0.00000.00000.0000  plane waves:    6235

 maximum and minimum number of plane-waves per node :    6235   6235

 maximum number of plane-waves:    6235
 maximal index in each direction: 
   IXMAX= 11   IYMAX= 11   IZMAX= 11
   IXMIN=-11   IYMIN=-11   IZMIN=-11

 NGX is ok and might be reduce to  46
 NGY is ok and might be reduce to  46
 NGZ is ok and might be reduce to  46

 serial   3D FFT for wavefunctions
 parallel 3D FFT for charge:
    minimum data exchange during FFTs selected (reduces bandwidth)


 total amount of memory used by VASP on root node  58323. kBytes
========================================================================

   base      :    30000. kBytes
   nonl-proj :     3594. kBytes
   fftplans  :     2983. kBytes
   grid      :    21024. kBytes
   one-center:       98. kBytes
   wavefun   :      624. kBytes
 
 Broyden mixing: mesh for mixing (old mesh)
   NGX = 23   NGY = 23   NGZ = 23
  (NGX  = 96   NGY  = 96   NGZ  = 96)
  gives a total of  12167 points

 initial charge density was supplied:
 charge density of overlapping atoms calculated
 number of electron   96.0000000 magnetization 
 keeping initial charge density in first step


--------------------------------------------------------------------------------------------------------


 Maximum index for augmentation-charges          531 (set IRDMAX)


--------------------------------------------------------------------------------------------------------


 First call to EWALD:  gamma=   0.219
 Maximum number of real-space cells 3x 3x 3
 Maximum number of reciprocal cells 3x 3x 3

    FEWALD:  cpu time    0.01: real time    0.01
   RESPFUN:  cpu time    0.00: real time    0.00


----------------------------------------- Iteration    1(   1)  ---------------------------------------


    POTLOK:  cpu time    0.15: real time    0.15
    SETDIJ:  cpu time    0.01: real time    0.01
    EDDIAG:  cpu time    0.15: real time    0.15
  RMM-DIIS:  cpu time    0.34: real time    0.35
    ORTHCH:  cpu time    0.01: real time    0.01
       DOS:  cpu time    0.00: real time    0.00
    --------------------------------------------
      LOOP:  cpu time    0.67: real time    0.67

 eigenvalue-minimisations  :    72
 total energy-change (2. order) : 0.2582005E+03  (-0.1665586E+04)
 number of electron   96.0000000 magnetization 
 augmentation part    96.0000000 magnetization 

 Free energy of the ion-electron system (eV)
  ---------------------------------------------------
  alpha Z        PSCENC =        -6.47188209
  Ewald energy   TEWEN  =     -2347.41496354
  -1/2 Hartree   DENC   =        -3.32377371
  -exchange  EXHF       =         0.00000000
  -V(xc)+E(xc)   XCENC  =      -840.04563207
  PAW double counting   =      1137.73615723     -115.16745734
  entropy T*S    EENTRO =        -0.04052130
  eigenvalues    EBANDS =       719.72459589
  atomic energy  EATOM  =      1713.20396807
  ---------------------------------------------------
  free energy    TOTEN  =       258.20049114 eV

  energy without entropy =      258.24101243  energy(sigma->0) =      258.21399824


--------------------------------------------------------------------------------------------------------




----------------------------------------- Iteration    1(   2)  ---------------------------------------


    EDDIAG:  cpu time    0.15: real time    0.15
  RMM-DIIS:  cpu time    0.34: real time    0.34
    ORTHCH:  cpu time    0.01: real time    0.01
       DOS:  cpu time    0.00: real time    0.00
    --------------------------------------------
      LOOP:  cpu time    0.50: real time    0.50

 eigenvalue-minimisations  :    72
 total energy-change (2. order) :-0.2814828E+03  (-0.2733241E+03)
 number of electron   96.0000000 magnetization 
 augmentation part    96.0000000 magnetization 

 Free energy of the ion-electron system (eV)
  ---------------------------------------------------
  alpha Z        PSCENC =        -6.47188209
  Ewald energy   TEWEN  =     -2347.41496354
  -1/2 Hartree   DENC   =        -3.32377371
  -exchange  EXHF       =         0.00000000
  -V(xc)+E(xc)   XCENC  =      -840.04563207
  PAW double counting   =      1137.73615723     -115.16745734
  entropy T*S    EENTRO =        -0.11410427
  eigenvalues    EBANDS =       438.31537483
  atomic energy  EATOM  =      1713.20396807
  ---------------------------------------------------
  free energy    TOTEN  =       -23.28231289 eV

  energy without entropy =      -23.16820862  energy(sigma->0) =      -23.24427813


--------------------------------------------------------------------------------------------------------




----------------------------------------- Iteration    1(   3)  ---------------------------------------


    EDDIAG:  cpu time    0.15: real time    0.15
  RMM-DIIS:  cpu time    0.34: real time    0.34
    ORTHCH:  cpu time    0.01: real time    0.01
       DOS:  cpu time    0.00: real time    0.00
    --------------------------------------------
      LOOP:  cpu time    0.50: real time    0.50

 eigenvalue-minimisations  :    72
 total energy-change (2. order) :-0.5202378E+02  (-0.5175421E+02)
 number of electron   96.0000000 magnetization 
 augmentation part    96.0000000 magnetization 

 Free energy of the ion-electron system (eV)
  ---------------------------------------------------
  alpha Z        PSCENC =        -6.47188209
  Ewald energy   TEWEN  =     -2347.41496354
  -1/2 Hartree   DENC   =        -3.32377371
  -exchange  EXHF       =         0.00000000
  -V(xc)+E(xc)   XCENC  =      -840.04563207
  PAW double counting   =      1137.73615723     -115.16745734
  entropy T*S    EENTRO =        -0.00887742
  eigenvalues    EBANDS =       386.18636902
  atomic energy  EATOM  =      1713.20396807
  ---------------------------------------------------
  free energy    TOTEN  =       -75.30609186 eV

  energy without entropy =      -75.29721444  energy(sigma->0) =      -75.30313272


--------------------------------------------------------------------------------------------------------




----------------------------------------- Iteration    1(   4)  ---------------------------------------


    EDDIAG:  cpu time    0.15: real time    0.15
  RMM-DIIS:  cpu time    0.33: real time    0.33
    ORTHCH:  cpu time    0.01: real time    0.01
       DOS:  cpu time    0.00: real time    0.00
    --------------------------------------------
      LOOP:  cpu time    0.49: real time    0.50

 eigenvalue-minimisations  :    72
 total energy-change (2. order) :-0.1654842E+02  (-0.1265871E+02)
 number of electron   96.0000000 magnetization 
 augmentation part    96.0000000 magnetization 

 Free energy of the ion-electron system (eV)
  ---------------------------------------------------
  alpha Z        PSCENC =        -6.47188209
  Ewald energy   TEWEN  =     -2347.41496354
  -1/2 Hartree   DENC   =        -3.32377371
  -exchange  EXHF       =         0.00000000
  -V(xc)+E(xc)   XCENC  =      -840.04563207
  PAW double counting   =      1137.73615723     -115.16745734
  entropy T*S    EENTRO =        -0.06772601
  eigenvalues    EBANDS =       369.69679915
  atomic energy  EATOM  =      1713.20396807
  ---------------------------------------------------
  free energy    TOTEN  =       -91.85451030 eV

  energy without entropy =      -91.78678430  energy(sigma->0) =      -91.83193497


--------------------------------------------------------------------------------------------------------




----------------------------------------- Iteration    1(   5)  ---------------------------------------


    EDDIAG:  cpu time    0.15: real time    0.15
  RMM-DIIS:  cpu time    0.34: real time    0.34
    ORTHCH:  cpu time    0.01: real time    0.01
       DOS:  cpu time    0.00: real time    0.00
    --------------------------------------------
      LOOP:  cpu time    0.50: real time    0.50

 eigenvalue-minimisations  :    72
 total energy-change (2. order) :-0.7181763E+01  (-0.4956496E+01)
 number of electron   96.0000000 magnetization 
 augmentation part    96.0000000 magnetization 

 Free energy of the ion-electron system (eV)
  ---------------------------------------------------
  alpha Z        PSCENC =        -6.47188209
  Ewald energy   TEWEN  =     -2347.41496354
  -1/2 Hartree   DENC   =        -3.32377371
  -exchange  EXHF       =         0.00000000
  -V(xc)+E(xc)   XCENC  =      -840.04563207
  PAW double counting   =      1137.73615723     -115.16745734
  entropy T*S    EENTRO =        -0.08350459
  eigenvalues    EBANDS =       362.53081450
  atomic energy  EATOM  =      1713.20396807
  ---------------------------------------------------
  free energy    TOTEN  =       -99.03627354 eV

  energy without entropy =      -98.95276895  energy(sigma->0) =      -99.00843868


--------------------------------------------------------------------------------------------------------




----------------------------------------- Iteration    1(   6)  ---------------------------------------


    EDDIAG:  cpu time    0.15: real time    0.15
  RMM-DIIS:  cpu time    0.34: real time    0.34
    ORTHCH:  cpu time    0.01: real time    0.01
       DOS:  cpu time    0.00: real time    0.00
    --------------------------------------------
      LOOP:  cpu time    0.50: real time    0.50

 eigenvalue-minimisations  :    72
 total energy-change (2. order) :-0.2563754E+01  (-0.1925338E+01)
 number of electron   96.0000000 magnetization 
 augmentation part    96.0000000 magnetization 

 Free energy of the ion-electron system (eV)
  ---------------------------------------------------
  alpha Z        PSCENC =        -6.47188209
  Ewald energy   TEWEN  =     -2347.41496354
  -1/2 Hartree   DENC   =        -3.32377371
  -exchange  EXHF       =         0.00000000
  -V(xc)+E(xc)   XCENC  =      -840.04563207
  PAW double counting   =      1137.73615723     -115.16745734
  entropy T*S    EENTRO =        -0.19697395
  eigenvalues    EBANDS =       360.08052960
  atomic energy  EATOM  =      1713.20396807
  ---------------------------------------------------
  free energy    TOTEN  =      -101.60002780 eV

  energy without entropy =     -101.40305386  energy(sigma->0) =     -101.53436982


--------------------------------------------------------------------------------------------------------




----------------------------------------- Iteration    1(   7)  ---------------------------------------


    EDDIAG:  cpu time    0.15: real time    0.15
  RMM-DIIS:  cpu time    0.34: real time    0.34
    ORTHCH:  cpu time    0.01: real time    0.01
       DOS:  cpu time    0.00: real time    0.00
    --------------------------------------------
      LOOP:  cpu time    0.50: real time    0.50

 eigenvalue-minimisations  :    72
 total energy-change (2. order) :-0.9824428E+00  (-0.8181508E+00)
 number of electron   96.0000000 magnetization 
 augmentation part    96.0000000 magnetization 

 Free energy of the ion-electron system (eV)
  ---------------------------------------------------
  alpha Z        PSCENC =        -6.47188209
  Ewald energy   TEWEN  =     -2347.41496354
  -1/2 Hartree   DENC   =        -3.32377371
  -exchange  EXHF       =         0.00000000
  -V(xc)+E(xc)   XCENC  =      -840.04563207
  PAW double counting   =      1137.73615723     -115.16745734
  entropy T*S    EENTRO =        -0.27299967
  eigenvalues    EBANDS =       359.17411252
  atomic energy  EATOM  =      1713.20396807
  ---------------------------------------------------
  free energy    TOTEN  =      -102.58247060 eV

  energy without entropy =     -102.30947093  energy(sigma->0) =     -102.49147071


--------------------------------------------------------------------------------------------------------




----------------------------------------- Iteration    1(   8)  ---------------------------------------


    EDDIAG:  cpu time    0.15: real time    0.15
  RMM-DIIS:  cpu time    0.34: real time    0.34
    ORTHCH:  cpu time    0.01: real time    0.01
       DOS:  cpu time    0.00: real time    0.00
    --------------------------------------------
      LOOP:  cpu time    0.50: real time    0.50

 eigenvalue-minimisations  :    72
 total energy-change (2. order) :-0.4308130E+00  (-0.3775086E+00)
 number of electron   96.0000000 magnetization 
 augmentation part    96.0000000 magnetization 

 Free energy of the ion-electron system (eV)
  ---------------------------------------------------
  alpha Z        PSCENC =        -6.47188209
  Ewald energy   TEWEN  =     -2347.41496354
  -1/2 Hartree   DENC   =        -3.32377371
  -exchange  EXHF       =         0.00000000
  -V(xc)+E(xc)   XCENC  =      -840.04563207
  PAW double counting   =      1137.73615723     -115.16745734
  entropy T*S    EENTRO =        -0.31106133
  eigenvalues    EBANDS =       358.78136123
  atomic energy  EATOM  =      1713.20396807
  ---------------------------------------------------
  free energy    TOTEN  =      -103.01328355 eV

  energy without entropy =     -102.70222222  energy(sigma->0) =     -102.90959644


--------------------------------------------------------------------------------------------------------




----------------------------------------- Iteration    1(   9)  ---------------------------------------


    EDDIAG:  cpu time    0.15: real time    0.15
  RMM-DIIS:  cpu time    0.64: real time    0.64
    ORTHCH:  cpu time    0.01: real time    0.01
       DOS:  cpu time    0.00: real time    0.00
    --------------------------------------------
      LOOP:  cpu time    0.80: real time    0.80

 eigenvalue-minimisations  :   148
 total energy-change (2. order) :-0.3768258E+00  (-0.3388650E+00)
 number of electron   96.0000000 magnetization 
 augmentation part    96.0000000 magnetization 

 Free energy of the ion-electron system (eV)
  ---------------------------------------------------
  alpha Z        PSCENC =        -6.47188209
  Ewald energy   TEWEN  =     -2347.41496354
  -1/2 Hartree   DENC   =        -3.32377371
  -exchange  EXHF       =         0.00000000
  -V(xc)+E(xc)   XCENC  =      -840.04563207
  PAW double counting   =      1137.73615723     -115.16745734
  entropy T*S    EENTRO =        -0.33822672
  eigenvalues    EBANDS =       358.43170086
  atomic energy  EATOM  =      1713.20396807
  ---------------------------------------------------
  free energy    TOTEN  =      -103.39010930 eV

  energy without entropy =     -103.05188259  energy(sigma->0) =     -103.27736707


--------------------------------------------------------------------------------------------------------




----------------------------------------- Iteration    1(  10)  ---------------------------------------


    EDDIAG:  cpu time    0.15: real time    0.15
  RMM-DIIS:  cpu time    0.52: real time    0.52
    ORTHCH:  cpu time    0.01: real time    0.01
       DOS:  cpu time    0.00: real time    0.00
    --------------------------------------------
      LOOP:  cpu time    0.68: real time    0.68

 eigenvalue-minimisations  :   126
 total energy-change (2. order) :-0.4009589E-01  (-0.3307740E-01)
 number of electron   96.0000000 magnetization 
 augmentation part    96.0000000 magnetization 

 Free energy of the ion-electron system (eV)
  ---------------------------------------------------
  alpha Z        PSCENC =        -6.47188209
  Ewald energy   TEWEN  =     -2347.41496354
  -1/2 Hartree   DENC   =        -3.32377371
  -exchange  EXHF       =         0.00000000
  -V(xc)+E(xc)   XCENC  =      -840.04563207
  PAW double counting   =      1137.73615723     -115.16745734
  entropy T*S    EENTRO =        -0.33850979
  eigenvalues    EBANDS =       358.39188805
  atomic energy  EATOM  =      1713.20396807
  ---------------------------------------------------
  free energy    TOTEN  =      -103.43020520 eV

  energy without entropy =     -103.09169540  energy(sigma->0) =     -103.31736860


--------------------------------------------------------------------------------------------------------




----------------------------------------- Iteration    1(  11)  ---------------------------------------


    EDDIAG:  cpu time    0.15: real time    0.15
  RMM-DIIS:  cpu time    0.52: real time    0.52
    ORTHCH:  cpu time    0.01: real time    0.01
       DOS:  cpu time    0.00: real time    0.00
    --------------------------------------------
      LOOP:  cpu time    0.68: real time    0.68

 eigenvalue-minimisations  :   120
 total energy-change (2. order) :-0.2804183E-02  (-0.2009097E-02)
 number of electron   96.0000000 magnetization 
 augmentation part    96.0000000 magnetization 

 Free energy of the ion-electron system (eV)
  ---------------------------------------------------
  alpha Z        PSCENC =        -6.47188209
  Ewald energy   TEWEN  =     -2347.41496354
  -1/2 Hartree   DENC   =        -3.32377371
  -exchange  EXHF       =         0.00000000
  -V(xc)+E(xc)   XCENC  =      -840.04563207
  PAW double counting   =      1137.73615723     -115.16745734
  entropy T*S    EENTRO =        -0.33851373
  eigenvalues    EBANDS =       358.38908781
  atomic energy  EATOM  =      1713.20396807
  ---------------------------------------------------
  free energy    TOTEN  =      -103.43300938 eV

  energy without entropy =     -103.09449565  energy(sigma->0) =     -103.32017147


--------------------------------------------------------------------------------------------------------




----------------------------------------- Iteration    1(  12)  ---------------------------------------


    EDDIAG:  cpu time    0.15: real time    0.15
  RMM-DIIS:  cpu time    0.42: real time    0.42
    ORTHCH:  cpu time    0.01: real time    0.01
       DOS:  cpu time    0.00: real time    0.00
    CHARGE:  cpu time    0.30: real time    0.30
    MIXING:  cpu time    0.00: real time    0.00
    --------------------------------------------
      LOOP:  cpu time    0.88: real time    0.89

 eigenvalue-minimisations  :    84
 total energy-change (2. order) :-0.1006146E-03  (-0.7954171E-04)
 number of electron   95.9999992 magnetization 
 augmentation part    -0.9269248 magnetization 

 Broyden mixing:
  rms(total) = 0.62222E+00    rms(broyden)= 0.62220E+00
  rms(prec ) = 0.89766E+00
  weight for this iteration     100.00

 Free energy of the ion-electron system (eV)
  ---------------------------------------------------
  alpha Z        PSCENC =        -6.47188209
  Ewald energy   TEWEN  =     -2347.41496354
  -1/2 Hartree   DENC   =        -3.32377371
  -exchange  EXHF       =         0.00000000
  -V(xc)+E(xc)   XCENC  =      -840.04563207
  PAW double counting   =      1137.73615723     -115.16745734
  entropy T*S    EENTRO =        -0.33851375
  eigenvalues    EBANDS =       358.38898721
  atomic energy  EATOM  =      1713.20396807
  ---------------------------------------------------
  free energy    TOTEN  =      -103.43310999 eV

  energy without entropy =     -103.09459625  energy(sigma->0) =     -103.32027208


--------------------------------------------------------------------------------------------------------




----------------------------------------- Iteration    1(  13)  ---------------------------------------


    POTLOK:  cpu time    0.14: real time    0.14
    SETDIJ:  cpu time    0.01: real time    0.01
    EDDIAG:  cpu time    0.15: real time    0.15
  RMM-DIIS:  cpu time    0.61: real time    0.61
    ORTHCH:  cpu time    0.01: real time    0.01
       DOS:  cpu time    0.00: real time    0.00
    CHARGE:  cpu time    0.30: real time    0.30
    MIXING:  cpu time    0.00: real time    0.01
    --------------------------------------------
      LOOP:  cpu time    1.23: real time    1.23

 eigenvalue-minimisations  :   144
 total energy-change (2. order) : 0.5445950E+00  (-0.6875021E-02)
 number of electron   95.9999992 magnetization 
 augmentation part    -0.9433515 magnetization 

 Broyden mixing:
  rms(total) = 0.38661E+00    rms(broyden)= 0.38661E+00
  rms(prec ) = 0.56014E+00
  weight for this iteration     100.00

 eigenvalues of (default mixing * dielectric matrix)
  average eigenvalue GAMMA=   2.6323
  2.6323

 Free energy of the ion-electron system (eV)
  ---------------------------------------------------
  alpha Z        PSCENC =        -6.47188209
  Ewald energy   TEWEN  =     -2347.41496354
  -1/2 Hartree   DENC   =        -2.63849925
  -exchange  EXHF       =         0.00000000
  -V(xc)+E(xc)   XCENC  =      -838.85536395
  PAW double counting   =      1135.46390198     -112.85373814
  entropy T*S    EENTRO =        -0.33851375
  eigenvalues    EBANDS =       357.01657568
  atomic energy  EATOM  =      1713.20396807
  ---------------------------------------------------
  free energy    TOTEN  =      -102.88851497 eV

  energy without entropy =     -102.55000123  energy(sigma->0) =     -102.77567706


--------------------------------------------------------------------------------------------------------




----------------------------------------- Iteration    1(  14)  ---------------------------------------


    POTLOK:  cpu time    0.14: real time    0.14
    SETDIJ:  cpu time    0.01: real time    0.01
    EDDIAG:  cpu time    0.15: real time    0.15
  RMM-DIIS:  cpu time    0.61: real time    0.61
    ORTHCH:  cpu time    0.01: real time    0.01
       DOS:  cpu time    0.00: real time    0.00
    CHARGE:  cpu time    0.30: real time    0.30
    MIXING:  cpu time    0.00: real time    0.00
    --------------------------------------------
      LOOP:  cpu time    1.23: real time    1.23

 eigenvalue-minimisations  :   144
 total energy-change (2. order) : 0.4099614E+00  (-0.2273172E-01)
 number of electron   95.9999991 magnetization 
 augmentation part    -0.9755071 magnetization 

 Broyden mixing:
  rms(total) = 0.15245E-01    rms(broyden)= 0.15243E-01
  rms(prec ) = 0.17808E-01
  weight for this iteration     100.00

 eigenvalues of (default mixing * dielectric matrix)
  average eigenvalue GAMMA=   2.5191
  2.5191  2.5191

 Free energy of the ion-electron system (eV)
  ---------------------------------------------------
  alpha Z        PSCENC =        -6.47188209
  Ewald energy   TEWEN  =     -2347.41496354
  -1/2 Hartree   DENC   =        -3.42602252
  -exchange  EXHF       =         0.00000000
  -V(xc)+E(xc)   XCENC  =      -836.25854584
  PAW double counting   =      1131.31963738     -108.69342034
  entropy T*S    EENTRO =        -0.33851368
  eigenvalues    EBANDS =       355.60118902
  atomic energy  EATOM  =      1713.20396807
  ---------------------------------------------------
  free energy    TOTEN  =      -102.47855354 eV

  energy without entropy =     -102.14003986  energy(sigma->0) =     -102.36571564


--------------------------------------------------------------------------------------------------------




----------------------------------------- Iteration    1(  15)  ---------------------------------------


    POTLOK:  cpu time    0.14: real time    0.14
    SETDIJ:  cpu time    0.01: real time    0.01
    EDDIAG:  cpu time    0.15: real time    0.15
  RMM-DIIS:  cpu time    0.59: real time    0.60
    ORTHCH:  cpu time    0.01: real time    0.01
       DOS:  cpu time    0.00: real time    0.00
    CHARGE:  cpu time    0.30: real time    0.30
    MIXING:  cpu time    0.00: real time    0.00
    --------------------------------------------
      LOOP:  cpu time    1.21: real time    1.22

 eigenvalue-minimisations  :   144
 total energy-change (2. order) :-0.4620032E-04  (-0.1704660E-03)
 number of electron   95.9999991 magnetization 
 augmentation part    -0.9799344 magnetization 

 Broyden mixing:
  rms(total) = 0.39067E-02    rms(broyden)= 0.39062E-02
  rms(prec ) = 0.53582E-02
  weight for this iteration     100.00

 eigenvalues of (default mixing * dielectric matrix)
  average eigenvalue GAMMA=   2.1047
  1.0745  2.5192  2.7204

 Free energy of the ion-electron system (eV)
  ---------------------------------------------------
  alpha Z        PSCENC =        -6.47188209
  Ewald energy   TEWEN  =     -2347.41496354
  -1/2 Hartree   DENC   =        -3.47296638
  -exchange  EXHF       =         0.00000000
  -V(xc)+E(xc)   XCENC  =      -836.20143908
  PAW double counting   =      1132.69356766     -110.15099723
  entropy T*S    EENTRO =        -0.33851368
  eigenvalues    EBANDS =       355.67462653
  atomic energy  EATOM  =      1713.20396807
  ---------------------------------------------------
  free energy    TOTEN  =      -102.47859974 eV

  energy without entropy =     -102.14008606  energy(sigma->0) =     -102.36576184


--------------------------------------------------------------------------------------------------------




----------------------------------------- Iteration    1(  16)  ---------------------------------------


    POTLOK:  cpu time    0.14: real time    0.14
    SETDIJ:  cpu time    0.01: real time    0.01
    EDDIAG:  cpu time    0.15: real time    0.15
  RMM-DIIS:  cpu time    0.45: real time    0.45
    ORTHCH:  cpu time    0.01: real time    0.01
       DOS:  cpu time    0.00: real time    0.00
    --------------------------------------------
      LOOP:  cpu time    0.78: real time    0.78

 eigenvalue-minimisations  :    86
 total energy-change (2. order) :-0.8468496E-06  (-0.5390108E-05)
 number of electron   95.9999991 magnetization 
 augmentation part    -0.9799344 magnetization 

 Free energy of the ion-electron system (eV)
  ---------------------------------------------------
  alpha Z        PSCENC =        -6.47188209
  Ewald energy   TEWEN  =     -2347.41496354
  -1/2 Hartree   DENC   =        -3.50577957
  -exchange  EXHF       =         0.00000000
  -V(xc)+E(xc)   XCENC  =      -836.15839310
  PAW double counting   =      1132.93956389     -110.42013871
  entropy T*S    EENTRO =        -0.33851367
  eigenvalues    EBANDS =       355.68753814
  atomic energy  EATOM  =      1713.20396807
  ---------------------------------------------------
  free energy    TOTEN  =      -102.47860058 eV

  energy without entropy =     -102.14008691  energy(sigma->0) =     -102.36576269


--------------------------------------------------------------------------------------------------------




 average (electrostatic) potential at core
  the test charge radii are     1.0406
  (the norm of the test charge is              1.0000)
       1 -72.8570       2 -72.8570       3 -72.8570       4 -72.8570       5 -72.8570
       6 -72.8570       7 -72.8570       8 -72.8570       9 -72.8570      10 -72.8570
      11 -72.8570      12 -72.8570      13 -72.8570      14 -72.8570      15 -72.8570
      16 -72.8570      17 -72.8570      18 -72.8570      19 -72.8570      20 -72.8570
      21 -72.8570      22 -72.8570      23 -72.8570      24 -72.8570      25 -72.8570
      26 -72.8570      27 -72.8570      28 -72.8570      29 -72.8570      30 -72.8570
      31 -72.8570      32 -72.8570
 
 
 
 E-fermi :   8.1197     XC(G=0): -10.1799     alpha+bet :-14.7800
   add alpha+bet to get absolut eigen values

 k-point   1 :       0.0000    0.0000    0.0000
  band No.  band energies     occupation 
      1      -3.1619      2.00000
      2      -0.9234      2.00000
      3      -0.9234      2.00000
      4      -0.9234      2.00000
      5      -0.9234      2.00000
      6      -0.9234      2.00000
      7      -0.9234      2.00000
      8       1.2811      2.00000
      9       1.2811      2.00000
     10       1.2811      2.00000
     11       1.2811      2.00000
     12       1.2811      2.00000
     13       1.2811      2.00000
     14       1.2811      2.00000
     15       1.2811      2.00000
     16       1.2811      2.00000
     17       1.2811      2.00000
     18       1.2811      2.00000
     19       1.2811      2.00000
     20       3.3643      2.00000
     21       3.3643      2.00000
     22       3.3643      2.00000
     23       3.3643      2.00000
     24       3.5541      2.00000
     25       3.5541      2.00000
     26       3.5541      2.00000
     27       3.5541      2.00000
     28       5.0189      2.00000
     29       5.0189      2.00000
     30       5.0189      2.00000
     31       6.3314      2.00000
     32       6.3314      2.00000
     33       6.3314      2.00000
     34       7.0908      2.00000
     35       7.0908      2.00000
     36       7.0908      2.00000
     37       7.0908      2.00000
     38       7.0908      2.00000
     39       7.0908      2.00000
     40       7.0908      2.00000
     41       7.0908      2.00000
     42       7.0908      2.00000
     43       7.0908      2.00000
     44       7.0908      2.00000
     45       7.0908      2.00000
     46       8.1197      1.00000
     47       8.1197      1.00000
     48       8.1197      1.00000
     49       8.1197      1.00000
     50       8.1197      1.00000
     51       8.1197      1.00000
     52       8.9857      0.00000
     53       8.9857      0.00000
     54       8.9857      0.00000
     55       8.9857      0.00000
     56       8.9924      0.00000
     57       9.0107      0.00000
     58       9.1683      0.00000
     59       9.1683      0.00000
     60       9.1683      0.00000
     61       9.1683      0.00000
     62       9.1683      0.00000
     63       9.1683      0.00000
     64       9.1683      0.00000
     65       9.1683      0.00000
     66       9.1683      0.00000
     67       9.1683      0.00000
     68      10.5580      0.00000
     69      10.6045      0.00000
     70      10.6610      0.00000
     71      10.6610      0.00000
     72      10.6610      0.00000


--------------------------------------------------------------------------------------------------------


 soft charge-density along one line, spin component           1
         0         1         2         3         4         5         6         7         8         9
 total charge-density along one line
 
 pseudopotential strength for first ion, spin component:           1
  8.447  -0.006   0.000   0.000   0.000   0.000   0.000   0.000
 -0.006   0.000   0.000   0.000   0.000   0.000   0.000   0.000
  0.000   0.000   1.985   0.000   0.000  -0.026   0.000   0.000
  0.000   0.000   0.000   1.985   0.000   0.000  -0.026   0.000
  0.000   0.000   0.000   0.000   1.985   0.000   0.000  -0.026
  0.000   0.000  -0.026   0.000   0.000  -0.012   0.000   0.000
  0.000   0.000   0.000  -0.026   0.000   0.000  -0.012   0.000
  0.000   0.000   0.000   0.000  -0.026   0.000   0.000  -0.012
 total augmentation occupancy for first ion, spin component:           1
  1.120  -0.558   0.000   0.000   0.000   0.000   0.000   0.000
 -0.558   0.457   0.000   0.000   0.000   0.000   0.000   0.000
  0.000   0.000   0.799   0.000   0.000  -0.179   0.000   0.000
  0.000   0.000   0.000   0.799   0.000   0.000  -0.179   0.000
  0.000   0.000   0.000   0.000   0.799   0.000   0.000  -0.179
  0.000   0.000  -0.179   0.000   0.000   0.048   0.000   0.000
  0.000   0.000   0.000  -0.179   0.000   0.000   0.048   0.000
  0.000   0.000   0.000   0.000  -0.179   0.000   0.000   0.048


------------------------ aborting loop because EDIFF is reached ----------------------------------------




--------------------------------------------------------------------------------------------------------



  FREE ENERGIE OF THE ION-ELECTRON SYSTEM (eV)
  ---------------------------------------------------
  free  energy   TOTEN  =      -102.478601 eV

  energy  without entropy=     -102.140087  energy(sigma->0) =     -102.365763
 
    CHARGE:  cpu time    0.29: real time    0.29
    FORLOC:  cpu time    0.03: real time    0.03
    FORNL :  cpu time    0.25: real time    0.25
    STRESS:  cpu time    0.41: real time    0.41
    FORCOR:  cpu time    0.17: real time    0.17
    FORHAR:  cpu time    0.06: real time    0.07
    MIXING:  cpu time    0.01: real time    0.00

  FORCE on cell =-STRESS in cart. coord.  units (eV):
  Direction    XX          YY          ZZ          XY          YZ          ZX
  --------------------------------------------------------------------------------------
  Alpha Z    -6.47188    -6.47188    -6.47188
  Ewald    -782.47491  -782.47491  -782.47491     0.00000     0.00000     0.00000
  Hartree     1.16902     1.16902     1.16902     0.00000     0.00000     0.00000
  E(xc)    -271.65029  -271.65029  -271.65029     0.00000     0.00000     0.00000
  Local      18.43035    18.43035    18.43035     0.00000     0.00000     0.00000
  n-local   561.76537   561.76389   561.76500     0.00004    -0.00004     0.00011
  augment   -26.19983   -26.19983   -26.19984     0.00000     0.00000     0.00000
  Kinetic   492.96822   492.97177   492.96883    -0.00013     0.00006    -0.00026
  Fock        0.00000     0.00000     0.00000     0.00000     0.00000     0.00000
  -------------------------------------------------------------------------------------
  Total     -12.46319   -12.46319   -12.46319     0.00000     0.00000     0.00000
  in kB     -37.57377   -37.57377   -37.57377     0.00000     0.00000     0.00000
  external pressure =      -37.57 kB  Pullay stress =        0.00 kB


 VOLUME and BASIS-vectors are now :
 -----------------------------------------------------------------------------
  energy-cutoff  :      300.00
  volume of cell :      531.44
      direct lattice vectors                 reciprocal lattice vectors
     8.100000000  0.000000000  0.000000000     0.123456790  0.000000000  0.000000000
     0.000000000  8.100000000  0.000000000     0.000000000  0.123456790  0.000000000
     0.000000000  0.000000000  8.100000000     0.000000000  0.000000000  0.123456790

  length of vectors
     8.100000000  8.100000000  8.100000000     0.123456790  0.123456790  0.123456790


 FORCES acting on ions
    electron-ion (+dipol)            ewald-force                    non-local-force                 convergence-correction
 -----------------------------------------------------------------------------------------------
   -.393E-14 0.154E-14 0.640E-14   -.926E-14 -.433E-14 -.566E-14   -.344E-21 0.582E-21 0.278E-21   0.263E-13 -.627E-14 -.262E-13
   -.744E-14 -.629E-13 0.839E-13   -.333E-15 -.455E-14 -.718E-14   0.596E-21 -.169E-20 0.191E-20   -.204E-13 -.144E-13 0.358E-13
   -.764E-14 0.428E-13 -.447E-13   -.655E-14 -.377E-14 -.833E-14   -.167E-20 0.180E-20 -.410E-21   -.543E-14 0.335E-13 -.445E-13
   -.237E-14 -.389E-14 -.313E-14   -.130E-14 -.775E-15 0.251E-14   0.331E-21 -.116E-20 0.127E-20   0.238E-14 0.464E-13 0.377E-13
   -.118E-13 -.134E-12 -.438E-12   -.165E-14 -.588E-14 -.411E-14   -.199E-21 -.966E-21 -.183E-20   -.251E-13 -.112E-13 -.599E-13
   -.117E-13 -.816E-13 0.107E-12   -.788E-14 -.477E-14 0.584E-15   0.397E-21 0.164E-20 0.185E-21   0.194E-13 -.265E-13 0.611E-13
   -.135E-13 0.210E-12 -.285E-13   -.233E-14 0.245E-14 -.611E-14   0.116E-20 -.821E-21 -.106E-20   0.463E-14 0.619E-13 -.322E-13
   -.887E-14 0.247E-12 0.241E-12   0.167E-14 -.414E-15 0.114E-14   0.900E-21 -.259E-20 0.127E-20   -.147E-14 0.732E-13 0.507E-13
   -.510E-14 -.116E-13 -.233E-14   -.745E-14 -.999E-15 0.189E-14   0.222E-20 -.157E-20 0.166E-20   -.132E-14 0.430E-14 -.653E-14
   -.800E-14 0.359E-13 -.460E-13   0.333E-15 -.999E-15 0.303E-14   0.662E-21 0.144E-20 -.371E-21   0.553E-14 0.122E-13 0.365E-13
   -.969E-14 -.530E-13 -.738E-14   -.283E-14 -.121E-14 0.289E-14   0.124E-20 -.142E-20 0.526E-21   -.138E-14 -.316E-13 -.236E-13
   -.258E-14 -.173E-13 -.523E-14   0.866E-15 0.809E-14 0.588E-15   0.860E-21 -.247E-20 -.940E-21   -.894E-14 -.445E-13 0.375E-13
   -.928E-14 0.115E-12 -.195E-14   0.350E-15 0.588E-14 0.122E-14   -.102E-20 0.123E-20 -.238E-21   0.215E-14 0.744E-14 -.146E-13
   -.129E-13 -.716E-13 -.456E-13   -.389E-14 -.411E-14 -.119E-14   0.874E-21 -.212E-21 0.289E-20   -.624E-14 0.228E-13 0.428E-13
   -.148E-13 -.116E-12 0.953E-13   0.105E-14 -.538E-15 -.244E-14   -.196E-20 0.265E-21 0.597E-21   0.575E-15 -.580E-13 -.461E-14
   -.109E-13 0.575E-13 0.629E-14   0.249E-14 -.146E-14 0.923E-15   0.582E-21 -.143E-20 -.159E-21   0.985E-14 -.692E-13 0.503E-13
   -.455E-15 -.388E-14 -.629E-14   -.442E-14 -.278E-14 0.167E-14   -.151E-20 -.196E-20 0.112E-20   0.106E-14 -.594E-14 0.242E-13
   -.722E-14 0.237E-13 -.715E-14   0.250E-14 -.427E-14 -.744E-14   -.397E-22 0.220E-20 0.781E-21   0.119E-13 0.681E-14 -.325E-13
   -.546E-14 -.858E-14 0.236E-13   -.144E-14 -.309E-14 0.300E-14   0.291E-21 -.311E-21 -.120E-20   0.629E-14 0.346E-13 0.416E-13
   -.266E-14 -.567E-14 -.139E-13   0.529E-14 0.261E-14 -.433E-14   0.212E-21 0.251E-20 -.794E-21   0.149E-13 0.269E-13 -.359E-13
   -.969E-14 -.384E-13 0.145E-12   0.426E-14 -.233E-14 0.555E-15   0.122E-20 0.119E-20 -.900E-21   0.114E-15 -.106E-13 0.550E-13
   -.112E-13 0.555E-13 -.167E-12   -.250E-14 -.427E-14 -.410E-14   -.926E-22 -.204E-20 -.609E-21   -.129E-13 0.127E-14 -.576E-13
   -.116E-13 -.637E-13 -.557E-13   0.278E-14 0.201E-14 0.255E-14   0.688E-21 -.424E-21 -.357E-21   -.710E-14 0.434E-13 0.289E-13
   -.986E-14 -.364E-13 0.252E-13   0.367E-14 0.228E-14 0.233E-14   0.662E-21 0.259E-20 -.465E-21   -.140E-13 0.280E-13 -.464E-13
   -.179E-14 -.784E-14 -.440E-14   -.832E-15 0.788E-14 -.555E-15   -.953E-21 -.240E-20 0.586E-21   -.766E-14 0.491E-14 0.545E-14
   -.903E-14 -.591E-13 0.539E-13   0.250E-14 0.250E-14 0.114E-15   -.132E-20 0.185E-20 0.847E-21   0.128E-13 -.789E-14 -.346E-13
   -.624E-14 0.486E-13 -.364E-13   -.105E-14 0.761E-15 0.666E-15   -.735E-21 0.132E-21 0.302E-20   0.103E-13 -.333E-13 0.213E-13
   -.136E-14 -.193E-13 -.175E-13   0.460E-14 0.117E-13 0.153E-13   0.397E-21 0.562E-21 0.529E-22   0.989E-14 -.257E-13 -.364E-13
   -.759E-14 -.698E-13 -.532E-13   0.959E-14 0.588E-14 -.122E-14   -.715E-21 0.110E-20 -.128E-20   0.851E-14 0.835E-14 0.118E-13
   -.130E-13 0.254E-13 0.890E-13   -.250E-14 -.105E-14 -.411E-14   -.450E-21 0.188E-20 -.127E-20   -.135E-13 -.330E-14 -.410E-13
   -.114E-13 0.133E-13 0.332E-13   0.283E-14 0.477E-14 0.666E-15   -.926E-21 0.794E-22 -.130E-20   -.112E-13 -.415E-13 0.262E-14
   -.111E-13 -.118E-12 0.451E-13   0.783E-14 0.109E-14 0.821E-14   0.187E-20 0.127E-20 -.196E-20   -.898E-14 -.259E-13 -.471E-13
 -----------------------------------------------------------------------------------------------
   -.260E-12 -.106E-12 -.303E-13   -.361E-14 0.633E-14 -.691E-14   0.324E-20 0.860E-21 0.185E-20   0.972E-15 0.168E-16 -.366E-15
 
 
 POSITION                                       TOTAL-FORCE (eV/Angst)
 -----------------------------------------------------------------------------------
      0.00000      0.00000      0.00000         0.000000      0.000000      0.000000
      2.02500      0.00000      2.02500         0.000000      0.000000      0.000000
      2.02500      2.02500      0.00000         0.000000      0.000000      0.000000
      0.00000      2.02500      2.02500         0.000000      0.000000      0.000000
      4.05000      0.00000      0.00000         0.000000      0.000000      0.000000
      6.07500      0.00000      2.02500         0.000000      0.000000      0.000000
      6.07500      2.02500      0.00000         0.000000      0.000000      0.000000
      4.05000      2.02500      2.02500         0.000000      0.000000      0.000000
      0.00000      4.05000      0.00000         0.000000      0.000000      0.000000
      2.02500      4.05000      2.02500         0.000000      0.000000      0.000000
      2.02500      6.07500      0.00000         0.000000      0.000000      0.000000
      0.00000      6.07500      2.02500         0.000000      0.000000      0.000000
      4.05000      4.05000      0.00000         0.000000      0.000000      0.000000
      6.07500      4.05000      2.02500         0.000000      0.000000      0.000000
      6.07500      6.07500      0.00000         0.000000      0.000000      0.000000
      4.05000      6.07500      2.02500         0.000000      0.000000      0.000000
      0.00000      0.00000      4.05000         0.000000      0.000000      0.000000
      2.02500      0.00000      6.07500         0.000000      0.000000      0.000000
      2.02500      2.02500      4.05000         0.000000      0.000000      0.000000
      0.00000      2.02500      6.07500         0.000000      0.000000      0.000000
      4.05000      0.00000      4.05000         0.000000      0.000000      0.000000
      6.07500      0.00000      6.07500         0.000000      0.000000      0.000000
      6.07500      2.02500      4.05000         0.000000      0.000000      0.000000
      4.05000      2.02500      6.07500         0.000000      0.000000      0.000000
      0.00000      4.05000      4.05000         0.000000      0.000000      0.000000
      2.02500      4.05000      6.07500         0.000000      0.000000      0.000000
      2.02500      6.07500      4.05000         0.000000      0.000000      0.000000
      0.00000      6.07500      6.07500         0.000000      0.000000      0.000000
      4.05000      4.05000      4.05000         0.000000      0.000000      0.000000
      6.07500      4.05000      6.07500         0.000000      0.000000      0.000000
      6.07500      6.07500      4.05000         0.000000      0.000000      0.000000
      4.05000      6.07500      6.07500         0.000000      0.000000      0.000000
 -----------------------------------------------------------------------------------
    total drift:                                0.000000      0.000000      0.000000


--------------------------------------------------------------------------------------------------------


    POTLOK:  cpu time    0.16: real time    0.16


--------------------------------------------------------------------------------------------------------


  FORCES: max atom, RMS     0.000000    0.000000
  FORCE total and by dimension    0.000000    0.000000


--------------------------------------------------------------------------------------------------------


    WAVPRE:  cpu time    0.04: real time    0.04
    FEWALD:  cpu time    0.01: real time    0.01
    GENKIN:  cpu time    0.00: real time    0.00
    ORTHCH:  cpu time    0.05: real time    0.05
     LOOP+:  cpu time   13.16: real time   13.19
   RESPFUN:  cpu time    0.00: real time    0.00


----------------------------------------- Iteration    2(   1)  ---------------------------------------


    POTLOK:  cpu time    0.16: real time    0.17
    SETDIJ:  cpu time    0.01: real time    0.01
    EDDIAG:  cpu time    0.15: real time    0.15
  RMM-DIIS:  cpu time    0.61: real time    0.61
    ORTHCH:  cpu time    0.01: real time    0.01
       DOS:  cpu time    0.00: real time    0.00
    CHARGE:  cpu time    0.30: real time    0.30
    MIXING:  cpu time    0.00: real time    0.00
    --------------------------------------------
      LOOP:  cpu time    1.25: real time    1.25

 eigenvalue-minimisations  :   144
 total energy-change (2. order) :-0.2550373E+00  (-0.4178036E+00)
 number of electron   96.0000006 magnetization 
 augmentation part    -0.9555927 magnetization 

 Broyden mixing:
  rms(total) = 0.91133E-01    rms(broyden)= 0.91128E-01
  rms(prec ) = 0.13820E+00
  weight for this iteration     100.00

 Free energy of the ion-electron system (eV)
  ---------------------------------------------------
  alpha Z        PSCENC =        -6.85083896
  Ewald energy   TEWEN  =     -2392.36582330
  -1/2 Hartree   DENC   =        -3.57391859
  -exchange  EXHF       =         0.00000000
  -V(xc)+E(xc)   XCENC  =      -833.17637855
  PAW double counting   =      1132.84557508     -110.32440364
  entropy T*S    EENTRO =        -0.33851375
  eigenvalues    EBANDS =       397.84669657
  atomic energy  EATOM  =      1713.20396807
  ---------------------------------------------------
  free energy    TOTEN  =      -102.73363708 eV

  energy without entropy =     -102.39512333  energy(sigma->0) =     -102.62079917


--------------------------------------------------------------------------------------------------------




----------------------------------------- Iteration    2(   2)  ---------------------------------------


    POTLOK:  cpu time    0.14: real time    0.14
    SETDIJ:  cpu time    0.01: real time    0.01
    EDDIAG:  cpu time    0.15: real time    0.15
  RMM-DIIS:  cpu time    0.59: real time    0.59
    ORTHCH:  cpu time    0.01: real time    0.01
       DOS:  cpu time    0.00: real time    0.00
    CHARGE:  cpu time    0.30: real time    0.30
    MIXING:  cpu time    0.00: real time    0.00
    --------------------------------------------
      LOOP:  cpu time    1.21: real time    1.21

 eigenvalue-minimisations  :   144
 total energy-change (2. order) : 0.1822232E-01  (-0.1478580E-02)
 number of electron   96.0000006 magnetization 
 augmentation part    -0.9601154 magnetization 

 Broyden mixing:
  rms(total) = 0.57611E-01    rms(broyden)= 0.57611E-01
  rms(prec ) = 0.87619E-01
  weight for this iteration     100.00

 eigenvalues of (default mixing * dielectric matrix)
  average eigenvalue GAMMA=   2.7049
  2.7049

 Free energy of the ion-electron system (eV)
  ---------------------------------------------------
  alpha Z        PSCENC =        -6.85083896
  Ewald energy   TEWEN  =     -2392.36582330
  -1/2 Hartree   DENC   =        -3.66982514
  -exchange  EXHF       =         0.00000000
  -V(xc)+E(xc)   XCENC  =      -832.93661147
  PAW double counting   =      1135.49858198     -113.11050323
  entropy T*S    EENTRO =        -0.33851375
  eigenvalues    EBANDS =       397.85415105
  atomic energy  EATOM  =      1713.20396807
  ---------------------------------------------------
  free energy    TOTEN  =      -102.71541476 eV

  energy without entropy =     -102.37690101  energy(sigma->0) =     -102.60257684


--------------------------------------------------------------------------------------------------------




----------------------------------------- Iteration    2(   3)  ---------------------------------------


    POTLOK:  cpu time    0.14: real time    0.14
    SETDIJ:  cpu time    0.01: real time    0.01
    EDDIAG:  cpu time    0.15: real time    0.15
  RMM-DIIS:  cpu time    0.61: real time    0.61
    ORTHCH:  cpu time    0.01: real time    0.01
       DOS:  cpu time    0.00: real time    0.00
    CHARGE:  cpu time    0.30: real time    0.30
    MIXING:  cpu time    0.00: real time    0.00
    --------------------------------------------
      LOOP:  cpu time    1.23: real time    1.23

 eigenvalue-minimisations  :   144
 total energy-change (2. order) : 0.1299851E-01  (-0.5580291E-03)
 number of electron   96.0000006 magnetization 
 augmentation part    -0.9663897 magnetization 

 Broyden mixing:
  rms(total) = 0.23783E-02    rms(broyden)= 0.23782E-02
  rms(prec ) = 0.29136E-02
  weight for this iteration     100.00

 eigenvalues of (default mixing * dielectric matrix)
  average eigenvalue GAMMA=   1.9032
  2.6388  1.1676

 Free energy of the ion-electron system (eV)
  ---------------------------------------------------
  alpha Z        PSCENC =        -6.85083896
  Ewald energy   TEWEN  =     -2392.36582330
  -1/2 Hartree   DENC   =        -3.88825055
  -exchange  EXHF       =         0.00000000
  -V(xc)+E(xc)   XCENC  =      -832.49970023
  PAW double counting   =      1139.66606768     -117.49653733
  entropy T*S    EENTRO =        -0.33851375
  eigenvalues    EBANDS =       397.86721212
  atomic energy  EATOM  =      1713.20396807
  ---------------------------------------------------
  free energy    TOTEN  =      -102.70241625 eV

  energy without entropy =     -102.36390251  energy(sigma->0) =     -102.58957834


--------------------------------------------------------------------------------------------------------




----------------------------------------- Iteration    2(   4)  ---------------------------------------


    POTLOK:  cpu time    0.15: real time    0.15
    SETDIJ:  cpu time    0.01: real time    0.01
    EDDIAG:  cpu time    0.15: real time    0.15
  RMM-DIIS:  cpu time    0.40: real time    0.40
    ORTHCH:  cpu time    0.01: real time    0.01
       DOS:  cpu time    0.00: real time    0.00
    --------------------------------------------
      LOOP:  cpu time    0.72: real time    0.73

 eigenvalue-minimisations  :    84
 total energy-change (2. order) :-0.1453622E-04  (-0.1753379E-04)
 number of electron   96.0000006 magnetization 
 augmentation part    -0.9663897 magnetization 

 Free energy of the ion-electron system (eV)
  ---------------------------------------------------
  alpha Z        PSCENC =        -6.85083896
  Ewald energy   TEWEN  =     -2392.36582330
  -1/2 Hartree   DENC   =        -3.88731022
  -exchange  EXHF       =         0.00000000
  -V(xc)+E(xc)   XCENC  =      -832.50238865
  PAW double counting   =      1139.47650846     -117.30057443
  entropy T*S    EENTRO =        -0.33851375
  eigenvalues    EBANDS =       397.86254199
  atomic energy  EATOM  =      1713.20396807
  ---------------------------------------------------
  free energy    TOTEN  =      -102.70243079 eV

  energy without entropy =     -102.36391704  energy(sigma->0) =     -102.58959287


--------------------------------------------------------------------------------------------------------




 average (electrostatic) potential at core
  the test charge radii are     1.0406
  (the norm of the test charge is              1.0000)
       1 -72.1468       2 -72.1468       3 -72.1468       4 -72.1468       5 -72.1468
       6 -72.1468       7 -72.1468       8 -72.1468       9 -72.1468      10 -72.1468
      11 -72.1468      12 -72.1468      13 -72.1468      14 -72.1468      15 -72.1468
      16 -72.1468      17 -72.1468      18 -72.1468      19 -72.1468      20 -72.1468
      21 -72.1468      22 -72.1468      23 -72.1468      24 -72.1468      25 -72.1468
      26 -72.1468      27 -72.1468      28 -72.1468      29 -72.1468      30 -72.1468
      31 -72.1468      32 -72.1468
 
 
 
 E-fermi :   8.6214     XC(G=0): -10.3856     alpha+bet :-15.6455
   add alpha+bet to get absolut eigen values

 k-point   1 :       0.0000    0.0000    0.0000
  band No.  band energies     occupation 
      1      -2.9546      2.00000
      2      -0.6320      2.00000
      3      -0.6320      2.00000
      4      -0.6320      2.00000
      5      -0.6320      2.00000
      6      -0.6320      2.00000
      7      -0.6320      2.00000
      8       1.6515      2.00000
      9       1.6515      2.00000
     10       1.6515      2.00000
     11       1.6515      2.00000
     12       1.6515      2.00000
     13       1.6515      2.00000
     14       1.6515      2.00000
     15       1.6515      2.00000
     16       1.6515      2.00000
     17       1.6515      2.00000
     18       1.6515      2.00000
     19       1.6515      2.00000
     20       3.7399      2.00000
     21       3.7399      2.00000
     22       3.7399      2.00000
     23       3.7399      2.00000
     24       4.0820      2.00000
     25       4.0820      2.00000
     26       4.0820      2.00000
     27       4.0820      2.00000
     28       5.4861      2.00000
     29       5.4861      2.00000
     30       5.4861      2.00000
     31       6.9229      2.00000
     32       6.9229      2.00000
     33       6.9229      2.00000
     34       7.6234      2.00000
     35       7.6234      2.00000
     36       7.6234      2.00000
     37       7.6234      2.00000
     38       7.6234      2.00000
     39       7.6234      2.00000
     40       7.6234      2.00000
     41       7.6234      2.00000
     42       7.6234      2.00000
     43       7.6234      2.00000
     44       7.6234      2.00000
     45       7.6234      2.00000
     46       8.6214      1.00000
     47       8.6214      1.00000
     48       8.6214      1.00000
     49       8.6214      1.00000
     50       8.6214      1.00000
     51       8.6214      1.00000
     52       9.7692      0.00000
     53       9.7692      0.00000
     54       9.7692      0.00000
     55       9.7692      0.00000
     56       9.7692      0.00000
     57       9.7692      0.00000
     58       9.7692      0.00000
     59       9.7692      0.00000
     60       9.7692      0.00000
     61       9.7692      0.00000
     62       9.8945      0.00000
     63       9.9099      0.00000
     64       9.9160      0.00000
     65       9.9160      0.00000
     66       9.9160      0.00000
     67       9.9160      0.00000
     68      11.4210      0.00000
     69      11.4399      0.00000
     70      11.4424      0.00000
     71      11.4424      0.00000
     72      11.4424      0.00000


--------------------------------------------------------------------------------------------------------


 soft charge-density along one line, spin component           1
         0         1         2         3         4         5         6         7         8         9
 total charge-density along one line
 
 pseudopotential strength for first ion, spin component:           1
  8.428  -0.006   0.000   0.000   0.000   0.000   0.000   0.000
 -0.006   0.000   0.000   0.000   0.000   0.000   0.000   0.000
  0.000   0.000   1.989   0.000   0.000  -0.028   0.000   0.000
  0.000   0.000   0.000   1.989   0.000   0.000  -0.028   0.000
  0.000   0.000   0.000   0.000   1.989   0.000   0.000  -0.028
  0.000   0.000  -0.028   0.000   0.000  -0.012   0.000   0.000
  0.000   0.000   0.000  -0.028   0.000   0.000  -0.012   0.000
  0.000   0.000   0.000   0.000  -0.028   0.000   0.000  -0.012
 total augmentation occupancy for first ion, spin component:           1
  1.122  -0.614   0.000   0.000   0.000   0.000   0.000   0.000
 -0.614   0.529   0.000   0.000   0.000   0.000   0.000   0.000
  0.000   0.000   0.838   0.000   0.000  -0.190   0.000   0.000
  0.000   0.000   0.000   0.838   0.000   0.000  -0.190   0.000
  0.000   0.000   0.000   0.000   0.838   0.000   0.000  -0.190
  0.000   0.000  -0.190   0.000   0.000   0.052   0.000   0.000
  0.000   0.000   0.000  -0.190   0.000   0.000   0.052   0.000
  0.000   0.000   0.000   0.000  -0.190   0.000   0.000   0.052


------------------------ aborting loop because EDIFF is reached ----------------------------------------




--------------------------------------------------------------------------------------------------------



  FREE ENERGIE OF THE ION-ELECTRON SYSTEM (eV)
  ---------------------------------------------------
  free  energy   TOTEN  =      -102.702431 eV

  energy  without entropy=     -102.363917  energy(sigma->0) =     -102.589593
 
    CHARGE:  cpu time    0.29: real time    0.29
    FORLOC:  cpu time    0.03: real time    0.03
    FORNL :  cpu time    0.25: real time    0.25
    STRESS:  cpu time    0.40: real time    0.40
    FORCOR:  cpu time    0.17: real time    0.17
    FORHAR:  cpu time    0.07: real time    0.07
    MIXING:  cpu time    0.00: real time    0.00

  FORCE on cell =-STRESS in cart. coord.  units (eV):
  Direction    XX          YY          ZZ          XY          YZ          ZX
  --------------------------------------------------------------------------------------
  Alpha Z    -6.85084    -6.85084    -6.85084
  Ewald    -797.45859  -797.45859  -797.45859     0.00000     0.00000     0.00000
  Hartree     1.29812     1.29812     1.29812     0.00000     0.00000     0.00000
  E(xc)    -276.99360  -276.99360  -276.99360     0.00000     0.00000     0.00000
  Local      24.92445    24.92445    24.92445     0.00000     0.00000     0.00000
  n-local   574.83918   574.83883   574.83921    -0.00010    -0.00013     0.00007
  augment   -25.81445   -25.81446   -25.81446     0.00000     0.00000     0.00000
  Kinetic   510.98538   510.98624   510.98546     0.00004     0.00008    -0.00007
  Fock        0.00000     0.00000     0.00000     0.00000     0.00000     0.00000
  -------------------------------------------------------------------------------------
  Total       4.92986     4.92986     4.92986     0.00000     0.00000     0.00000
  in kB      15.73269    15.73269    15.73269     0.00000     0.00000     0.00000
  external pressure =       15.73 kB  Pullay stress =        0.00 kB


 VOLUME and BASIS-vectors are now :
 -----------------------------------------------------------------------------
  energy-cutoff  :      300.00
  volume of cell :      502.04
      direct lattice vectors                 reciprocal lattice vectors
     7.947806736  0.000000000  0.000000000     0.125820875  0.000000000  0.000000000
     0.000000000  7.947806736  0.000000000     0.000000000  0.125820875  0.000000000
     0.000000000  0.000000000  7.947806736     0.000000000  0.000000000  0.125820875

  length of vectors
     7.947806736  7.947806736  7.947806736     0.125820875  0.125820875  0.125820875


 FORCES acting on ions
    electron-ion (+dipol)            ewald-force                    non-local-force                 convergence-correction
 -----------------------------------------------------------------------------------------------
   -.766E-14 0.744E-15 0.459E-14   -.471E-14 0.133E-14 0.688E-14   0.749E-21 0.728E-22 -.268E-21   0.164E-14 -.526E-14 -.926E-14
   -.737E-14 -.672E-13 0.850E-13   -.444E-14 0.577E-14 -.391E-14   -.132E-21 -.185E-21 -.662E-21   -.426E-14 -.569E-14 0.132E-13
   -.932E-14 0.398E-13 -.449E-13   -.444E-14 -.423E-14 0.151E-13   0.629E-21 -.218E-21 -.910E-22   -.213E-14 0.168E-13 -.117E-13
   -.802E-14 -.256E-14 -.337E-14   -.231E-14 -.177E-14 -.539E-14   0.331E-21 -.122E-21 -.427E-21   -.160E-14 0.195E-13 0.133E-13
   -.136E-13 -.142E-12 -.466E-12   -.622E-14 -.150E-14 0.733E-14   -.529E-21 0.182E-22 0.390E-21   -.226E-14 -.633E-14 -.133E-13
   -.138E-13 -.871E-13 0.115E-12   -.466E-14 0.311E-14 -.192E-14   0.238E-21 0.119E-21 -.291E-21   0.482E-14 -.901E-14 0.164E-13
   -.143E-13 0.222E-12 -.328E-13   -.222E-14 0.523E-14 0.577E-14   -.860E-22 0.126E-21 0.202E-21   0.278E-14 0.219E-13 -.966E-14
   -.106E-13 0.256E-12 0.237E-12   -.444E-14 -.159E-14 -.118E-13   -.119E-21 -.821E-21 0.397E-22   0.875E-15 0.235E-13 0.151E-13
[...]
       DOS:  cpu time    0.00: real time    0.00
    CHARGE:  cpu time    0.30: real time    0.30
    MIXING:  cpu time    0.00: real time    0.00
    --------------------------------------------
      LOOP:  cpu time    1.16: real time    1.16

 eigenvalue-minimisations  :   110
 total energy-change (2. order) : 0.1050483E-02  (-0.3781025E-04)
 number of electron   96.0000004 magnetization 
 augmentation part    -0.9721321 magnetization 

 Broyden mixing:
  rms(total) = 0.68495E-03    rms(broyden)= 0.68494E-03
  rms(prec ) = 0.84786E-03
  weight for this iteration     100.00

 eigenvalues of (default mixing * dielectric matrix)
  average eigenvalue GAMMA=   1.9191
  2.6347  1.2034

 Free energy of the ion-electron system (eV)
  ---------------------------------------------------
  alpha Z        PSCENC =        -6.74583348
  Ewald energy   TEWEN  =     -2380.07992989
  -1/2 Hartree   DENC   =        -3.77735644
  -exchange  EXHF       =         0.00000000
  -V(xc)+E(xc)   XCENC  =      -833.49316423
  PAW double counting   =      1137.31234974     -115.03391201
  entropy T*S    EENTRO =        -0.33851375
  eigenvalues    EBANDS =       386.21187591
  atomic energy  EATOM  =      1713.20396807
  ---------------------------------------------------
  free energy    TOTEN  =      -102.74051609 eV

  energy without entropy =     -102.40200234  energy(sigma->0) =     -102.62767817


--------------------------------------------------------------------------------------------------------




----------------------------------------- Iteration    3(   4)  ---------------------------------------


    POTLOK:  cpu time    0.14: real time    0.15
    SETDIJ:  cpu time    0.01: real time    0.01
    EDDIAG:  cpu time    0.15: real time    0.15
  RMM-DIIS:  cpu time    0.35: real time    0.35
    ORTHCH:  cpu time    0.01: real time    0.01
       DOS:  cpu time    0.00: real time    0.00
    --------------------------------------------
      LOOP:  cpu time    0.67: real time    0.67

 eigenvalue-minimisations  :    63
 total energy-change (2. order) :-0.5107366E-05  (-0.1478388E-05)
 number of electron   96.0000004 magnetization 
 augmentation part    -0.9721321 magnetization 

 Free energy of the ion-electron system (eV)
  ---------------------------------------------------
  alpha Z        PSCENC =        -6.74583348
  Ewald energy   TEWEN  =     -2380.07992989
  -1/2 Hartree   DENC   =        -3.77774116
  -exchange  EXHF       =         0.00000000
  -V(xc)+E(xc)   XCENC  =      -833.49202642
  PAW double counting   =      1137.37575063     -115.09962940
  entropy T*S    EENTRO =        -0.33851375
  eigenvalues    EBANDS =       386.21343422
  atomic energy  EATOM  =      1713.20396807
  ---------------------------------------------------
  free energy    TOTEN  =      -102.74052119 eV

  energy without entropy =     -102.40200744  energy(sigma->0) =     -102.62768328


--------------------------------------------------------------------------------------------------------




 average (electrostatic) potential at core
  the test charge radii are     1.0406
  (the norm of the test charge is              1.0000)
       1 -72.3433       2 -72.3433       3 -72.3433       4 -72.3433       5 -72.3433
       6 -72.3433       7 -72.3433       8 -72.3433       9 -72.3433      10 -72.3433
      11 -72.3433      12 -72.3433      13 -72.3433      14 -72.3433      15 -72.3433
      16 -72.3433      17 -72.3433      18 -72.3433      19 -72.3433      20 -72.3433
      21 -72.3433      22 -72.3433      23 -72.3433      24 -72.3433      25 -72.3433
      26 -72.3433      27 -72.3433      28 -72.3433      29 -72.3433      30 -72.3433
      31 -72.3433      32 -72.3433
 
 
 
 E-fermi :   8.4832     XC(G=0): -10.3295     alpha+bet :-15.4057
   add alpha+bet to get absolut eigen values

 k-point   1 :       0.0000    0.0000    0.0000
  band No.  band energies     occupation 
      1      -3.0123      2.00000
      2      -0.7128      2.00000
      3      -0.7128      2.00000
      4      -0.7128      2.00000
      5      -0.7128      2.00000
      6      -0.7128      2.00000
      7      -0.7128      2.00000
      8       1.5491      2.00000
      9       1.5491      2.00000
     10       1.5491      2.00000
     11       1.5491      2.00000
     12       1.5491      2.00000
     13       1.5491      2.00000
     14       1.5491      2.00000
     15       1.5491      2.00000
     16       1.5491      2.00000
     17       1.5491      2.00000
     18       1.5491      2.00000
     19       1.5491      2.00000
     20       3.6358      2.00000
     21       3.6358      2.00000
     22       3.6358      2.00000
     23       3.6358      2.00000
     24       3.9365      2.00000
     25       3.9365      2.00000
     26       3.9365      2.00000
     27       3.9365      2.00000
     28       5.3567      2.00000
     29       5.3567      2.00000
     30       5.3567      2.00000
     31       6.7610      2.00000
     32       6.7610      2.00000
     33       6.7610      2.00000
     34       7.4762      2.00000
     35       7.4762      2.00000
     36       7.4762      2.00000
     37       7.4762      2.00000
     38       7.4762      2.00000
     39       7.4762      2.00000
     40       7.4762      2.00000
     41       7.4762      2.00000
     42       7.4762      2.00000
     43       7.4762      2.00000
     44       7.4762      2.00000
     45       7.4762      2.00000
     46       8.4832      1.00000
     47       8.4832      1.00000
     48       8.4832      1.00000
     49       8.4832      1.00000
     50       8.4832      1.00000
     51       8.4832      1.00000
     52       9.6034      0.00000
     53       9.6034      0.00000
     54       9.6034      0.00000
     55       9.6034      0.00000
     56       9.6034      0.00000
     57       9.6034      0.00000
     58       9.6034      0.00000
     59       9.6034      0.00000
     60       9.6034      0.00000
     61       9.6034      0.00000
     62       9.6508      0.00000
     63       9.6567      0.00000
     64       9.6592      0.00000
     65       9.6592      0.00000
     66       9.6592      0.00000
     67       9.6592      0.00000
     68      11.2171      0.00000
     69      11.2246      0.00000
     70      11.2274      0.00000
     71      11.2274      0.00000
     72      11.2274      0.00000


--------------------------------------------------------------------------------------------------------


 soft charge-density along one line, spin component           1
         0         1         2         3         4         5         6         7         8         9
 total charge-density along one line
 
 pseudopotential strength for first ion, spin component:           1
  8.433  -0.006   0.000   0.000   0.000   0.000   0.000   0.000
 -0.006   0.000   0.000   0.000   0.000   0.000   0.000   0.000
  0.000   0.000   1.988   0.000   0.000  -0.027   0.000   0.000
  0.000   0.000   0.000   1.988   0.000   0.000  -0.027   0.000
  0.000   0.000   0.000   0.000   1.988   0.000   0.000  -0.027
  0.000   0.000  -0.027   0.000   0.000  -0.012   0.000   0.000
  0.000   0.000   0.000  -0.027   0.000   0.000  -0.012   0.000
  0.000   0.000   0.000   0.000  -0.027   0.000   0.000  -0.012
 total augmentation occupancy for first ion, spin component:           1
  1.122  -0.585   0.000   0.000   0.000   0.000   0.000   0.000
 -0.585   0.494   0.000   0.000   0.000   0.000   0.000   0.000
  0.000   0.000   0.827   0.000   0.000  -0.187   0.000   0.000
  0.000   0.000   0.000   0.827   0.000   0.000  -0.187   0.000
  0.000   0.000   0.000   0.000   0.827   0.000   0.000  -0.187
  0.000   0.000  -0.187   0.000   0.000   0.050   0.000   0.000
  0.000   0.000   0.000  -0.187   0.000   0.000   0.050   0.000
  0.000   0.000   0.000   0.000  -0.187   0.000   0.000   0.050


------------------------ aborting loop because EDIFF is reached ----------------------------------------




--------------------------------------------------------------------------------------------------------



  FREE ENERGIE OF THE ION-ELECTRON SYSTEM (eV)
  ---------------------------------------------------
  free  energy   TOTEN  =      -102.740521 eV

  energy  without entropy=     -102.402007  energy(sigma->0) =     -102.627683
 
    CHARGE:  cpu time    0.30: real time    0.30
    FORLOC:  cpu time    0.03: real time    0.03
    FORNL :  cpu time    0.25: real time    0.25
    STRESS:  cpu time    0.40: real time    0.40
    FORCOR:  cpu time    0.17: real time    0.17
    FORHAR:  cpu time    0.07: real time    0.07
    MIXING:  cpu time    0.00: real time    0.00

  FORCE on cell =-STRESS in cart. coord.  units (eV):
  Direction    XX          YY          ZZ          XY          YZ          ZX
  --------------------------------------------------------------------------------------
  Alpha Z    -6.74583    -6.74583    -6.74583
  Ewald    -793.36328  -793.36328  -793.36328     0.00000     0.00000     0.00000
  Hartree     1.25864     1.25864     1.25864     0.00000     0.00000     0.00000
  E(xc)    -275.50197  -275.50197  -275.50197     0.00000     0.00000     0.00000
  Local      23.19723    23.19723    23.19723     0.00000     0.00000     0.00000
  n-local   571.14662   571.14640   571.14657    -0.00002    -0.00003     0.00001
  augment   -25.94627   -25.94627   -25.94629     0.00000     0.00000     0.00000
  Kinetic   505.98209   505.98261   505.98219     0.00000     0.00001    -0.00001
  Fock        0.00000     0.00000     0.00000     0.00000     0.00000     0.00000
  -------------------------------------------------------------------------------------
  Total       0.02735     0.02735     0.02735     0.00000     0.00000     0.00000
  in kB       0.08593     0.08593     0.08593     0.00000     0.00000     0.00000
  external pressure =        0.09 kB  Pullay stress =        0.00 kB


 VOLUME and BASIS-vectors are now :
 -----------------------------------------------------------------------------
  energy-cutoff  :      300.00
  volume of cell :      509.86
      direct lattice vectors                 reciprocal lattice vectors
     7.988833050  0.000000000  0.000000000     0.125174727  0.000000000  0.000000000
     0.000000000  7.988833050  0.000000000     0.000000000  0.125174727  0.000000000
     0.000000000  0.000000000  7.988833050     0.000000000  0.000000000  0.125174727

  length of vectors
     7.988833050  7.988833050  7.988833050     0.125174727  0.125174727  0.125174727


 FORCES acting on ions
    electron-ion (+dipol)            ewald-force                    non-local-force                 convergence-correction
 -----------------------------------------------------------------------------------------------
   -.154E-14 0.816E-15 0.437E-14   0.362E-14 0.594E-14 -.278E-14   -.741E-21 -.112E-21 0.571E-22   0.631E-14 -.687E-14 -.338E-14
   -.542E-14 -.649E-13 0.828E-13   -.150E-14 0.677E-14 0.137E-14   0.232E-22 -.397E-22 0.662E-21   -.195E-14 -.540E-14 0.430E-14
   -.838E-14 0.413E-13 -.440E-13   0.583E-14 0.462E-14 -.333E-15   -.430E-22 0.447E-22 -.281E-21   -.287E-15 0.128E-13 -.363E-14
   -.165E-14 -.483E-14 -.279E-14   -.516E-14 -.517E-14 -.112E-13   0.109E-21 -.217E-21 0.397E-21   0.549E-14 0.138E-13 0.419E-14
   -.122E-13 -.139E-12 -.458E-12   -.418E-14 -.888E-15 -.266E-14   0.308E-21 -.786E-22 0.278E-21   -.578E-14 -.798E-14 -.373E-14
   -.130E-13 -.864E-13 0.111E-12   -.278E-15 0.477E-14 0.259E-14   -.199E-21 -.510E-21 0.410E-21   0.125E-14 -.943E-14 0.451E-14
   -.143E-13 0.216E-12 -.325E-13   -.205E-14 0.377E-15 0.833E-14   0.523E-21 -.271E-21 0.304E-21   -.244E-15 0.178E-13 -.334E-14
   -.869E-14 0.253E-12 0.238E-12   -.306E-14 0.462E-14 -.861E-16   -.331E-22 0.175E-21 0.543E-21   -.513E-14 0.181E-13 0.448E-14
   -.471E-14 -.116E-13 -.295E-14   0.170E-14 0.944E-15 -.300E-14   -.235E-21 -.404E-21 -.634E-21   0.460E-15 0.675E-14 -.289E-14
   -.669E-14 0.367E-13 -.421E-13   -.128E-14 -.544E-14 -.441E-14   0.270E-21 -.372E-21 0.463E-21   0.319E-14 0.525E-14 0.420E-14
   -.837E-14 -.481E-13 -.699E-14   0.611E-14 -.384E-14 -.266E-14   0.179E-21 0.480E-22 -.420E-21   0.138E-14 -.127E-13 -.322E-14
   -.222E-14 -.177E-13 -.539E-14   -.436E-14 -.365E-14 -.264E-14   -.223E-22 0.893E-22 0.357E-21   0.889E-15 -.138E-13 0.427E-14
   -.982E-14 0.109E-12 -.846E-15   -.484E-14 -.266E-14 -.888E-15   -.366E-21 0.139E-21 -.374E-21   -.125E-14 0.811E-14 -.317E-14
   -.120E-13 -.658E-13 -.450E-13   -.183E-14 0.411E-14 0.115E-13   -.156E-21 0.179E-21 0.622E-21   -.255E-14 0.961E-14 0.440E-14
   -.156E-13 -.114E-12 0.971E-13   -.777E-15 -.895E-15 0.622E-14   -.298E-21 0.103E-21 -.114E-21   -.103E-14 -.180E-13 -.293E-14
   -.105E-13 0.575E-13 0.988E-14   -.278E-14 -.697E-14 0.707E-15   0.165E-22 -.524E-21 0.781E-21   -.136E-14 -.183E-13 0.451E-14
   0.117E-14 -.274E-14 -.705E-14   0.451E-14 -.117E-14 0.189E-14   0.860E-22 -.926E-22 -.265E-21   0.609E-14 -.694E-14 0.348E-14
   -.608E-14 0.237E-13 -.382E-14   0.433E-14 0.633E-14 0.522E-14   -.672E-21 0.331E-23 -.655E-21   -.161E-14 -.500E-14 -.444E-14
   -.553E-14 -.554E-14 0.264E-13   0.583E-14 0.305E-14 -.810E-14   0.410E-21 -.273E-21 -.476E-21   -.220E-16 0.127E-13 0.377E-14
   -.203E-14 -.580E-14 -.137E-13   -.303E-14 -.480E-14 0.699E-14   -.298E-21 0.127E-21 -.582E-21   0.578E-14 0.134E-13 -.438E-14
   -.963E-14 -.403E-13 0.146E-12   -.278E-14 -.888E-15 0.266E-14   0.384E-21 -.242E-21 0.361E-21   -.556E-14 -.801E-14 0.381E-14
   -.124E-13 0.550E-13 -.165E-12   0.999E-15 -.255E-14 -.266E-14   -.103E-21 0.278E-21 -.739E-21   0.914E-15 -.900E-14 -.466E-14
   -.118E-13 -.664E-13 -.499E-13   -.161E-14 -.703E-15 -.144E-14   -.662E-22 0.311E-21 -.179E-21   -.514E-15 0.177E-13 0.349E-14
   -.967E-14 -.359E-13 0.267E-13   0.505E-15 -.296E-14 0.108E-15   -.695E-22 0.205E-21 -.509E-21   -.542E-14 0.175E-13 -.463E-14
   -.203E-14 -.674E-14 -.543E-14   0.284E-14 -.611E-15 0.999E-15   -.365E-21 -.639E-21 0.415E-21   0.248E-15 0.684E-14 0.304E-14
   -.776E-14 -.598E-13 0.543E-13   0.255E-14 -.455E-14 0.560E-15   -.559E-21 0.132E-21 -.410E-21   0.345E-14 0.485E-14 -.439E-14
   -.518E-14 0.479E-13 -.353E-13   0.611E-14 -.293E-14 -.444E-14   -.379E-21 -.372E-21 0.550E-21   0.161E-14 -.126E-13 0.338E-14
   -.129E-14 -.189E-13 -.175E-13   0.116E-14 -.434E-14 -.622E-14   0.314E-22 -.702E-21 -.424E-21   0.119E-14 -.133E-13 -.446E-14
   -.772E-14 -.658E-13 -.570E-13   -.975E-15 -.444E-14 0.799E-14   -.529E-22 -.167E-21 0.383E-21   -.105E-14 0.815E-14 0.326E-14
   -.119E-13 0.185E-13 0.885E-13   0.999E-15 0.777E-15 0.267E-14   -.893E-22 -.318E-21 -.708E-21   -.278E-14 0.919E-14 -.460E-14
   -.120E-13 0.112E-13 0.254E-13   -.777E-15 -.265E-14 0.266E-14   -.794E-22 -.261E-21 0.118E-21   -.125E-14 -.179E-13 0.305E-14
   -.973E-14 -.111E-12 0.435E-13   0.779E-15 -.790E-14 0.443E-14   -.245E-21 0.223E-21 -.979E-21   -.168E-14 -.177E-13 -.466E-14
 -----------------------------------------------------------------------------------------------
   -.249E-12 -.101E-12 -.411E-13   0.661E-14 -.277E-13 0.133E-13   -.273E-20 -.354E-20 -.105E-20   -.121E-14 -.266E-15 -.370E-15
 
 
 POSITION                                       TOTAL-FORCE (eV/Angst)
 -----------------------------------------------------------------------------------
      0.00000      0.00000      0.00000         0.000000      0.000000      0.000000
      1.99721      0.00000      1.99721         0.000000      0.000000      0.000000
      1.99721      1.99721      0.00000         0.000000      0.000000      0.000000
      0.00000      1.99721      1.99721         0.000000      0.000000      0.000000
      3.99442      0.00000      0.00000         0.000000      0.000000      0.000000
      5.99162      0.00000      1.99721         0.000000      0.000000      0.000000
      5.99162      1.99721      0.00000         0.000000      0.000000      0.000000
      3.99442      1.99721      1.99721         0.000000      0.000000      0.000000
      0.00000      3.99442      0.00000         0.000000      0.000000      0.000000
      1.99721      3.99442      1.99721         0.000000      0.000000      0.000000
      1.99721      5.99162      0.00000         0.000000      0.000000      0.000000
      0.00000      5.99162      1.99721         0.000000      0.000000      0.000000
      3.99442      3.99442      0.00000         0.000000      0.000000      0.000000
      5.99162      3.99442      1.99721         0.000000      0.000000      0.000000
      5.99162      5.99162      0.00000         0.000000      0.000000      0.000000
      3.99442      5.99162      1.99721         0.000000      0.000000      0.000000
      0.00000      0.00000      3.99442         0.000000      0.000000      0.000000
      1.99721      0.00000      5.99162         0.000000      0.000000      0.000000
      1.99721      1.99721      3.99442         0.000000      0.000000      0.000000
      0.00000      1.99721      5.99162         0.000000      0.000000      0.000000
      3.99442      0.00000      3.99442         0.000000      0.000000      0.000000
      5.99162      0.00000      5.99162         0.000000      0.000000      0.000000
      5.99162      1.99721      3.99442         0.000000      0.000000      0.000000
      3.99442      1.99721      5.99162         0.000000      0.000000      0.000000
      0.00000      3.99442      3.99442         0.000000      0.000000      0.000000
      1.99721      3.99442      5.99162         0.000000      0.000000      0.000000
      1.99721      5.99162      3.99442         0.000000      0.000000      0.000000
      0.00000      5.99162      5.99162         0.000000      0.000000      0.000000
      3.99442      3.99442      3.99442         0.000000      0.000000      0.000000
      5.99162      3.99442      5.99162         0.000000      0.000000      0.000000
      5.99162      5.99162      3.99442         0.000000      0.000000      0.000000
      3.99442      5.99162      5.99162         0.000000      0.000000      0.000000
 -----------------------------------------------------------------------------------
    total drift:                                0.000000      0.000000      0.000000
 d Force = 0.0000000E+00[ 0.000E+00, 0.000E+00]  d Energy = 0.3809040E-01-0.381E-01
 d Force = 0.0000000E+00[ 0.000E+00, 0.000E+00]  d Ewald  =-0.1228589E+02 0.123E+02


--------------------------------------------------------------------------------------------------------


    POTLOK:  cpu time    0.16: real time    0.16


--------------------------------------------------------------------------------------------------------


  FORCES: max atom, RMS     0.000000    0.000000
  FORCE total and by dimension    0.000000    0.000000


--------------------------------------------------------------------------------------------------------


  
 reached required accuracy - stopping structural energy minimisation
     LOOP+:  cpu time    5.64: real time    5.65
    4ORBIT:  cpu time    0.00: real time    0.00

 total amount of memory used by VASP on root node  58323. kBytes
========================================================================

   base      :    30000. kBytes
   nonl-proj :     3594. kBytes
   fftplans  :     2983. kBytes
   grid      :    21024. kBytes
   one-center:       98. kBytes
   wavefun   :      624. kBytes
 
  
  
 General timing and accounting informations for this job:
 ========================================================
  
                  Total CPU time used (sec):       25.377
                            User time (sec):       25.269
                          System time (sec):        0.108
                         Elapsed time (sec):       25.906
  
                   Maximum memory used (kb):           0.
                   Average memory used (kb):           0.
  
                          Minor page faults:        22482
                          Major page faults:           31
                 Voluntary context switches:         2075
