<?xml version="1.0" encoding="ISO-8859-1"?>
<modeling>
 <generator>
  <i name="program" type="string">vasp </i>
  <i name="version" type="string">5.2.2  </i>
  <i name="subversion" type="string">15Apr09 complex  parallel </i>
  <i name="platform" type="string">LinuxIFC </i>
  <i name="date" type="string">2017 03 17 </i>
  <i name="time" type="string">11:18:27 </i>
 </generator>
 <incar>
  <i type="string" name="PREC">accurate</i>
  <i type="int" name="IALGO">    48</i>
  <i type="int" name="IBRION">     2</i>
  <i name="EDIFFG">      0.05000000</i>
  <i type="int" name="NSW">   191</i>
  <i type="int" name="ISIF">     3</i>
  <i name="ENCUT">    300.00000000</i>
  <i type="int" name="ISMEAR">     1</i>
  <i name="SIGMA">      0.20000000</i>
  <i type="logical" name="LWAVE"> F  </i>
  <i type="logical" name="LCHARG"> F  </i>
  <i type="logical" name="LPEAD"> F  </i>
  <i type="logical" name="LCALCPOL"> F  </i>
  <i type="logical" name="LCALCEPS"> F  </i>
  <v name="EFIELD_PEAD">      0.00000000      0.00000000      0.00000000</v>
  <i type="logical" name="LEFG"> F  </i>
 </incar>
 <kpoints>
  <generation param="Gamma">
   <v type="int" name="divisions">       1        1        1 </v>
   <v name="usershift">      0.00000000       0.00000000       0.00000000 </v>
   <v name="genvec1">      1.00000000       0.00000000       0.00000000 </v>
   <v name="genvec2">      0.00000000       1.00000000       0.00000000 </v>
   <v name="genvec3">      0.00000000       0.00000000       1.00000000 </v>
   <v name="shift">      0.00000000       0.00000000       0.00000000 </v>
  </generation>
  <varray name="kpointlist" >
   <v>       0.00000000       0.00000000       0.00000000 </v>
  </varray>
  <varray name="weights" >
   <v>       1.00000000 </v>
  </varray>
 </kpoints>
 <parameters>
  <separator name="general" >
   <i type="string" name="SYSTEM">unknown system</i>
   <i type="logical" name="LCOMPAT"> F  </i>
  </separator>
  <separator name="electronic" >
   <i type="string" name="PREC">accura</i>
   <i name="ENMAX">    300.00000000</i>
   <i name="ENAUG">    291.05200000</i>
   <i name="EDIFF">      0.00010000</i>
   <i type="int" name="IALGO">    48</i>
   <i type="int" name="IWAVPR">    11</i>
   <i type="int" name="NBANDS">    72</i>
   <i name="NELECT">     96.00000000</i>
   <separator name="electronic smearing" >
    <i type="int" name="ISMEAR">     1</i>
    <i name="SIGMA">      0.20000000</i>
   </separator>
   <separator name="electronic projectors" >
    <i type="logical" name="LREAL"> F  </i>
    <v name="ROPT">      0.00000000</v>
    <i type="int" name="LMAXPAW">  -100</i>
    <i type="int" name="LMAXMIX">     2</i>
   </separator>
   <separator name="electronic startup" >
    <i type="int" name="ISTART">     0</i>
    <i type="int" name="ICHARG">     2</i>
    <i type="int" name="INIWAV">     1</i>
   </separator>
   <separator name="electronic spin" >
    <i type="int" name="ISPIN">     1</i>
    <i type="logical" name="LNONCOLLINEAR"> F  </i>
    <v name="MAGMOM">      1.00000000      1.00000000      1.00000000      1.00000000      1.00000000      1.00000000      1.00000000      1.00000000      1.00000000      1.00000000      1.00000000      1.00000000      1.00000000      1.00000000      1.00000000      1.00000000      1.00000000      1.00000000      1.00000000      1.00000000
      1.00000000      1.00000000      1.00000000      1.00000000      1.00000000      1.00000000      1.00000000      1.00000000      1.00000000      1.00000000      1.00000000      1.00000000</v>
    <i name="NUPDOWN">     -1.00000000</i>
    <i type="logical" name="LSORBIT"> F  </i>
    <v name="SAXIS">      0.00000000      0.00000000      1.00000000</v>
    <i type="logical" name="LSPIRAL"> F  </i>
    <v name="QSPIRAL">      0.00000000      0.00000000      0.00000000</v>
    <i type="logical" name="LZEROZ"> F  </i>
   </separator>
   <separator name="electronic exchange-correlation" >
    <i type="logical" name="LASPH"> F  </i>
    <i type="logical" name="LMETAGGA"> F  </i>
   </separator>
   <separator name="electronic convergence" >
    <i type="int" name="NELM">    60</i>
    <i type="int" name="NELMDL">   -12</i>
    <i type="int" name="NELMIN">     2</i>
    <i name="ENINI">    300.00000000</i>
    <separator name="electronic convergence detail" >
     <i type="logical" name="LDIAG"> T  </i>
     <i name="WEIMIN">      0.00100000</i>
     <i name="EBREAK">      0.00000038</i>
     <i name="DEPER">      0.30000000</i>
     <i type="int" name="NRMM">     4</i>
     <i name="TIME">      0.40000000</i>
    </separator>
   </separator>
   <separator name="electronic mixer" >
    <i name="AMIX">      0.40000000</i>
    <i name="BMIX">      1.00000000</i>
    <i name="AMIN">      0.10000000</i>
    <i name="AMIX_MAG">      1.60000000</i>
    <i name="BMIX_MAG">      1.00000000</i>
    <separator name="electronic mixer details" >
     <i type="int" name="IMIX">     4</i>
     <i type="int" name="MAXMIX">   -45</i>
     <i name="WC">    100.00000000</i>
     <i type="int" name="INIMIX">     1</i>
     <i type="int" name="MIXPRE">     1</i>
     <i type="int" name="MREMOVE">     5</i>
    </separator>
   </separator>
   <separator name="electronic dipolcorrection" >
    <i type="logical" name="LDIPOL"> F  </i>
    <i type="logical" name="LMONO"> F  </i>
    <i type="int" name="IDIPOL">     0</i>
    <i name="EPSILON">      1.00000000</i>
    <v name="DIPOL">   -100.00000000   -100.00000000   -100.00000000</v>
    <i name="EFIELD">      0.00000000</i>
   </separator>
  </separator>
  <separator name="grids" >
   <i type="int" name="NGX">    48</i>
   <i type="int" name="NGY">    48</i>
   <i type="int" name="NGZ">    48</i>
   <i type="int" name="NGXF">    96</i>
   <i type="int" name="NGYF">    96</i>
   <i type="int" name="NGZF">    96</i>
   <i type="logical" name="ADDGRID"> F  </i>
  </separator>
  <separator name="ionic" >
   <i type="int" name="NSW">   191</i>
   <i type="int" name="IBRION">     2</i>
   <i type="int" name="ISIF">     3</i>
   <i name="PSTRESS">      0.00000000</i>
   <i name="EDIFFG">      0.05000000</i>
   <i type="int" name="NFREE">     1</i>
   <i name="POTIM">      0.50000000</i>
   <i name="SMASS">     -3.00000000</i>
  </separator>
  <separator name="ionic md" >
   <i name="TEBEG">      0.00010000</i>
   <i name="TEEND">      0.00010000</i>
   <i type="int" name="NBLOCK">     1</i>
   <i type="int" name="KBLOCK">   191</i>
   <i type="int" name="NPACO">   256</i>
   <i name="APACO">     16.00000000</i>
  </separator>
  <separator name="symmetry" >
   <i type="int" name="ISYM">     2</i>
   <i name="SYMPREC">      0.00001000</i>
  </separator>
  <separator name="dos" >
   <i type="logical" name="LORBIT"> F  </i>
   <v name="RWIGS">     -1.00000000</v>
   <i type="int" name="NEDOS">   301</i>
   <i name="EMIN">     10.00000000</i>
   <i name="EMAX">    -10.00000000</i>
   <i name="EFERMI">      0.00000000</i>
  </separator>
  <separator name="writing" >
   <i type="int" name="NWRITE">     2</i>
   <i type="logical" name="LWAVE"> F  </i>
   <i type="logical" name="LCHARG"> F  </i>
   <i type="logical" name="LPARD"> F  </i>
   <i type="logical" name="LVTOT"> F  </i>
   <i type="logical" name="LELF"> F  </i>
   <i type="logical" name="LOPTICS"> F  </i>
   <v name="STM">      0.00000000      0.00000000      0.00000000      0.00000000      0.00000000</v>
  </separator>
  <separator name="performance" >
   <i type="int" name="NPAR">    12</i>
   <i type="int" name="NSIM">     4</i>
   <i type="int" name="NBLK">    32</i>
   <i type="logical" name="LPLANE"> T  </i>
   <i type="logical" name="LSCALAPACK"> F  </i>
   <i type="logical" name="LSCAAWARE"> F  </i>
   <i type="logical" name="LSCALU"> F  </i>
   <i type="logical" name="LASYNC"> F  </i>
  </separator>
  <separator name="miscellaneous" >
   <i type="int" name="IDIOT">     3</i>
   <i type="logical" name="LMUSIC"> F  </i>
   <v name="POMASS">     26.98200000</v>
   <i type="logical" name="LCORR"> T  </i>
  </separator>
  <i type="logical" name="LREAL_COMPAT"> F  </i>
  <i type="logical" name="GGA_COMPAT"> T  </i>
  <i type="logical" name="LBERRY"> F  </i>
  <i type="int" name="ICORELEVEL">     0</i>
  <i type="logical" name="LDAU"> F  </i>
  <i type="int" name="I_CONSTRAINED_M">     0</i>
  <separator name="electronic exchange-correlation" >
   <i type="string" name="GGA">--</i>
   <i type="int" name="VOSKOWN">     0</i>
   <i type="logical" name="LHFCALC"> F  </i>
   <i type="logical" name="LHFONE"> F  </i>
   <i type="logical" name="LRHFCALC"> F  </i>
   <i type="logical" name="LTHOMAS"> F  </i>
   <i type="logical" name="LMODELHF"> F  </i>
   <i name="ENCUTFOCK">      0.00000000</i>
   <i name="ENCUT4O">     -1.00000000</i>
   <i type="int" name="EXXOEP">     0</i>
   <i type="int" name="FOURORBIT">     0</i>
   <i name="AEXX">      0.00000000</i>
   <i name="HFALPHA">      0.00000000</i>
   <i name="ALDAX">      1.00000000</i>
   <i name="AGGAX">      1.00000000</i>
   <i name="ALDAC">      1.00000000</i>
   <i name="AGGAC">      1.00000000</i>
   <i type="int" name="NKREDX">     1</i>
   <i type="int" name="NKREDY">     1</i>
   <i type="int" name="NKREDZ">     1</i>
   <i type="logical" name="SHIFTRED"> F  </i>
   <i type="logical" name="ODDONLY"> F  </i>
   <i type="logical" name="EVENONLY"> F  </i>
   <i type="int" name="LMAXFOCK">     0</i>
   <i type="int" name="NMAXFOCKAE">     0</i>
   <i name="HFSCREEN">      0.00000000</i>
   <i name="HFSCREENC">      0.00000000</i>
  </separator>
  <separator name="model GW" >
   <i type="int" name="MODEL_GW">     0</i>
   <i name="MODEL_EPS0">      9.96451875</i>
   <i name="MODEL_ALPHA">      1.00000000</i>
  </separator>
  <separator name="linear response parameters" >
   <i type="logical" name="LEPSILON"> F  </i>
   <i type="logical" name="LRPA"> F  </i>
   <i type="logical" name="LNABLA"> F  </i>
   <i type="logical" name="LVEL"> F  </i>
   <i type="int" name="KINTER">     0</i>
   <i name="CSHIFT">      0.10000000</i>
   <i name="OMEGAMAX">     -1.00000000</i>
  </separator>
  <separator name="orbital magnetization" >
   <i type="logical" name="ORBITALMAG"> F  </i>
   <i type="logical" name="LMAGBLOCH"> F  </i>
   <i type="logical" name="LCHIMAG"> F  </i>
   <i type="logical" name="LGAUGE"> T  </i>
   <i type="int" name="MAGATOM">     0</i>
   <v name="MAGDIPOL">      0.00000000      0.00000000      0.00000000</v>
   <v name="AVECCONST">      0.00000000      0.00000000      0.00000000</v>
  </separator>
  <separator name="response functions" >
   <i type="logical" name="LRPA"> T  </i>
   <i type="logical" name="LTCTE"> F  </i>
   <i type="logical" name="LTETE"> F  </i>
   <i type="logical" name="L2ORDER"> F  </i>
   <i type="logical" name="LGWLF"> F  </i>
   <i name="ENCUTGW">    200.00000000</i>
   <i name="ENCUTGWSOFT">     -2.00000000</i>
   <i name="ENCUTLF">     -1.00000000</i>
   <i type="int" name="LMAXMP2">    -1</i>
   <i name="SCISSOR">      0.00000000</i>
   <i type="int" name="NOMEGA">     0</i>
   <i type="int" name="NOMEGAR">     0</i>
   <i type="int" name="NBANDSGW">    -1</i>
   <i type="int" name="NBANDSLF">    -1</i>
   <i type="int" name="NELM">     1</i>
   <i type="int" name="DIM">     3</i>
   <i type="int" name="ANTIRES">     0</i>
   <i type="logical" name="LUSEW"> F  </i>
   <i name="OMEGAMAX">    -30.00000000</i>
   <i name="OMEGATL">   -200.00000000</i>
   <i type="int" name="OMEGAGRID">     0</i>
   <i name="CSHIFT">     -0.10000000</i>
   <i type="logical" name="SELFENERGY"> F  </i>
   <i type="logical" name="LSPECTRAL"> F  </i>
   <i type="logical" name="ODDONLYGW"> F  </i>
   <i type="logical" name="EVENONLYGW"> F  </i>
   <i type="int" name="NKREDLFX">     1</i>
   <i type="int" name="NKREDLFY">     1</i>
   <i type="int" name="NKREDLFZ">     1</i>
   <i type="int" name="MAXMEM">  1024</i>
   <i type="int" name="TELESCOPE">     0</i>
  </separator>
 </parameters>
 <atominfo>
  <atoms>      32 </atoms>
  <types>       1 </types>
  <array name="atoms" >
   <dimension dim="1">ion</dimension>
   <field type="string">element</field>
   <field type="int">atomtype</field>
   <set>
    <rc><c>Al</c><c>   1</c></rc>
    <rc><c>Al</c><c>   1</c></rc>
    <rc><c>Al</c><c>   1</c></rc>
    <rc><c>Al</c><c>   1</c></rc>
    <rc><c>Al</c><c>   1</c></rc>
    <rc><c>Al</c><c>   1</c></rc>
    <rc><c>Al</c><c>   1</c></rc>
    <rc><c>Al</c><c>   1</c></rc>
    <rc><c>Al</c><c>   1</c></rc>
    <rc><c>Al</c><c>   1</c></rc>
    <rc><c>Al</c><c>   1</c></rc>
    <rc><c>Al</c><c>   1</c></rc>
    <rc><c>Al</c><c>   1</c></rc>
    <rc><c>Al</c><c>   1</c></rc>
    <rc><c>Al</c><c>   1</c></rc>
    <rc><c>Al</c><c>   1</c></rc>
    <rc><c>Al</c><c>   1</c></rc>
    <rc><c>Al</c><c>   1</c></rc>
    <rc><c>Al</c><c>   1</c></rc>
    <rc><c>Al</c><c>   1</c></rc>
    <rc><c>Al</c><c>   1</c></rc>
    <rc><c>Al</c><c>   1</c></rc>
    <rc><c>Al</c><c>   1</c></rc>
    <rc><c>Al</c><c>   1</c></rc>
    <rc><c>Al</c><c>   1</c></rc>
    <rc><c>Al</c><c>   1</c></rc>
    <rc><c>Al</c><c>   1</c></rc>
    <rc><c>Al</c><c>   1</c></rc>
    <rc><c>Al</c><c>   1</c></rc>
    <rc><c>Al</c><c>   1</c></rc>
    <rc><c>Al</c><c>   1</c></rc>
    <rc><c>Al</c><c>   1</c></rc>
   </set>
  </array>
  <array name="atomtypes" >
   <dimension dim="1">type</dimension>
   <field type="int">atomspertype</field>
   <field type="string">element</field>
   <field>mass</field>
   <field>valence</field>
   <field type="string">pseudopotential</field>
   <set>
    <rc><c>  32</c><c>Al</c><c>     26.98200000</c><c>      3.00000000</c><c> PAW_PBE Al 04Jan2001                   </c></rc>
   </set>
  </array>
 </atominfo>
 <structure name="initialpos" >
  <crystal>
   <varray name="basis" >
    <v>       8.10000000       0.00000000       0.00000000 </v>
    <v>       0.00000000       8.10000000       0.00000000 </v>
    <v>       0.00000000       0.00000000       8.10000000 </v>
   </varray>
   <i name="volume">    531.44100000 </i>
   <varray name="rec_basis" >
    <v>       0.12345679       0.00000000       0.00000000 </v>
    <v>       0.00000000       0.12345679       0.00000000 </v>
    <v>       0.00000000       0.00000000       0.12345679 </v>
   </varray>
  </crystal>
  <varray name="positions" >
   <v>       0.00000000       0.00000000       0.00000000 </v>
   <v>       0.25000000       0.00000000       0.25000000 </v>
   <v>       0.25000000       0.25000000       0.00000000 </v>
   <v>       0.00000000       0.25000000       0.25000000 </v>
   <v>       0.50000000       0.00000000       0.00000000 </v>
   <v>       0.75000000       0.00000000       0.25000000 </v>
   <v>       0.75000000       0.25000000       0.00000000 </v>
   <v>       0.50000000       0.25000000       0.25000000 </v>
   <v>       0.00000000       0.50000000       0.00000000 </v>
   <v>       0.25000000       0.50000000       0.25000000 </v>
   <v>       0.25000000       0.75000000       0.00000000 </v>
   <v>       0.00000000       0.75000000       0.25000000 </v>
   <v>       0.50000000       0.50000000       0.00000000 </v>
   <v>       0.75000000       0.50000000       0.25000000 </v>
   <v>       0.75000000       0.75000000       0.00000000 </v>
   <v>       0.50000000       0.75000000       0.25000000 </v>
   <v>       0.00000000       0.00000000       0.50000000 </v>
   <v>       0.25000000       0.00000000       0.75000000 </v>
   <v>       0.25000000       0.25000000       0.50000000 </v>
   <v>       0.00000000       0.25000000       0.75000000 </v>
   <v>       0.50000000       0.00000000       0.50000000 </v>
   <v>       0.75000000       0.00000000       0.75000000 </v>
   <v>       0.75000000       0.25000000       0.50000000 </v>
   <v>       0.50000000       0.25000000       0.75000000 </v>
   <v>       0.00000000       0.50000000       0.50000000 </v>
   <v>       0.25000000       0.50000000       0.75000000 </v>
   <v>       0.25000000       0.75000000       0.50000000 </v>
   <v>       0.00000000       0.75000000       0.75000000 </v>
   <v>       0.50000000       0.50000000       0.50000000 </v>
   <v>       0.75000000       0.50000000       0.75000000 </v>
   <v>       0.75000000       0.75000000       0.50000000 </v>
   <v>       0.50000000       0.75000000       0.75000000 </v>
  </varray>
 </structure>
 <calculation>
  <scstep>
   <time name="diag">    0.15    0.15</time>
   <time name="diis">    0.34    0.35</time>
   <time name="orth">    0.01    0.01</time>
   <time name="total">    0.67    0.67</time>
   <energy>
    <i name="alphaZ">     -6.47188209 </i>
    <i name="ewald">  -2347.41496354 </i>
    <i name="hartreedc">     -3.32377371 </i>
    <i name="XCdc">   -840.04563207 </i>
    <i name="pawpsdc">   1137.73615723 </i>
    <i name="pawaedc">   -115.16745734 </i>
    <i name="eentropy">     -0.04052130 </i>
    <i name="bandstr">    719.72459589 </i>
    <i name="atom">   1713.20396807 </i>
    <i name="e_fr_energy">    258.20049114 </i>
    <i name="e_wo_entrp">    258.24101243 </i>
    <i name="e_0_energy">    258.21399824 </i>
   </energy>
  </scstep>
  <scstep>
   <time name="diag">    0.15    0.15</time>
   <time name="diis">    0.34    0.34</time>
   <time name="orth">    0.01    0.01</time>
   <time name="total">    0.50    0.50</time>
   <energy>
    <i name="e_fr_energy">    -23.28231289 </i>
    <i name="e_wo_entrp">    -23.16820862 </i>
    <i name="e_0_energy">    -23.24427813 </i>
   </energy>
  </scstep>
  <scstep>
   <time name="diag">    0.15    0.15</time>
   <time name="diis">    0.34    0.34</time>
   <time name="orth">    0.01    0.01</time>
   <time name="total">    0.50    0.50</time>
   <energy>
    <i name="e_fr_energy">    -75.30609186 </i>
    <i name="e_wo_entrp">    -75.29721444 </i>
    <i name="e_0_energy">    -75.30313272 </i>
   </energy>
  </scstep>
  <scstep>
   <time name="diag">    0.15    0.15</time>
   <time name="diis">    0.33    0.33</time>
   <time name="orth">    0.01    0.01</time>
   <time name="total">    0.49    0.50</time>
   <energy>
    <i name="e_fr_energy">    -91.85451030 </i>
    <i name="e_wo_entrp">    -91.78678430 </i>
    <i name="e_0_energy">    -91.83193497 </i>
   </energy>
  </scstep>
  <scstep>
   <time name="diag">    0.15    0.15</time>
   <time name="diis">    0.34    0.34</time>
   <time name="orth">    0.01    0.01</time>
   <time name="total">    0.50    0.50</time>
   <energy>
    <i name="e_fr_energy">    -99.03627354 </i>
    <i name="e_wo_entrp">    -98.95276895 </i>
    <i name="e_0_energy">    -99.00843868 </i>
   </energy>
  </scstep>
  <scstep>
   <time name="diag">    0.15    0.15</time>
   <time name="diis">    0.34    0.34</time>
   <time name="orth">    0.01    0.01</time>
   <time name="total">    0.50    0.50</time>
   <energy>
    <i name="e_fr_energy">   -101.60002780 </i>
    <i name="e_wo_entrp">   -101.40305386 </i>
    <i name="e_0_energy">   -101.53436982 </i>
   </energy>
  </scstep>
  <scstep>
   <time name="diag">    0.15    0.15</time>
   <time name="diis">    0.34    0.34</time>
   <time name="orth">    0.01    0.01</time>
   <time name="total">    0.50    0.50</time>
   <energy>
    <i name="e_fr_energy">   -102.58247060 </i>
    <i name="e_wo_entrp">   -102.30947093 </i>
    <i name="e_0_energy">   -102.49147071 </i>
   </energy>
  </scstep>
  <scstep>
   <time name="diag">    0.15    0.15</time>
   <time name="diis">    0.34    0.34</time>
   <time name="orth">    0.01    0.01</time>
   <time name="total">    0.50    0.50</time>
   <energy>
    <i name="e_fr_energy">   -103.01328355 </i>
    <i name="e_wo_entrp">   -102.70222222 </i>
    <i name="e_0_energy">   -102.90959644 </i>
   </energy>
  </scstep>
  <scstep>
   <time name="diag">    0.15    0.15</time>
   <time name="diis">    0.64    0.64</time>
   <time name="orth">    0.01    0.01</time>
   <time name="total">    0.80    0.80</time>
   <energy>
    <i name="e_fr_energy">   -103.39010930 </i>
    <i name="e_wo_entrp">   -103.05188259 </i>
    <i name="e_0_energy">   -103.27736707 </i>
   </energy>
  </scstep>
  <scstep>
   <time name="diag">    0.15    0.15</time>
   <time name="diis">    0.52    0.52</time>
   <time name="orth">    0.01    0.01</time>
   <time name="total">    0.68    0.68</time>
   <energy>
    <i name="e_fr_energy">   -103.43020520 </i>
    <i name="e_wo_entrp">   -103.09169540 </i>
    <i name="e_0_energy">   -103.31736860 </i>
   </energy>
  </scstep>
  <scstep>
   <time name="diag">    0.15    0.15</time>
   <time name="diis">    0.52    0.52</time>
   <time name="orth">    0.01    0.01</time>
   <time name="total">    0.68    0.68</time>
   <energy>
    <i name="e_fr_energy">   -103.43300938 </i>
    <i name="e_wo_entrp">   -103.09449565 </i>
    <i name="e_0_energy">   -103.32017147 </i>
   </energy>
  </scstep>
  <scstep>
   <time name="diag">    0.15    0.15</time>
   <time name="diis">    0.42    0.42</time>
   <time name="orth">    0.01    0.01</time>
   <time name="total">    0.88    0.89</time>
   <energy>
    <i name="e_fr_energy">   -103.43310999 </i>
    <i name="e_wo_entrp">   -103.09459625 </i>
    <i name="e_0_energy">   -103.32027208 </i>
   </energy>
  </scstep>
  <scstep>
   <time name="diag">    0.15    0.15</time>
   <time name="diis">    0.61    0.61</time>
   <time name="orth">    0.01    0.01</time>
   <time name="total">    1.23    1.23</time>
   <energy>
    <i name="e_fr_energy">   -102.88851497 </i>
    <i name="e_wo_entrp">   -102.55000123 </i>
    <i name="e_0_energy">   -102.77567706 </i>
   </energy>
  </scstep>
  <scstep>
   <time name="diag">    0.15    0.15</time>
   <time name="diis">    0.61    0.61</time>
   <time name="orth">    0.01    0.01</time>
   <time name="total">    1.23    1.23</time>
   <energy>
    <i name="e_fr_energy">   -102.47855354 </i>
    <i name="e_wo_entrp">   -102.14003986 </i>
    <i name="e_0_energy">   -102.36571564 </i>
   </energy>
  </scstep>
  <scstep>
   <time name="diag">    0.15    0.15</time>
   <time name="diis">    0.59    0.60</time>
   <time name="orth">    0.01    0.01</time>
   <time name="total">    1.21    1.22</time>
   <energy>
    <i name="e_fr_energy">   -102.47859974 </i>
    <i name="e_wo_entrp">   -102.14008606 </i>
    <i name="e_0_energy">   -102.36576184 </i>
   </energy>
  </scstep>
  <scstep>
   <time name="diag">    0.15    0.15</time>
   <time name="diis">    0.45    0.45</time>
   <time name="orth">    0.01    0.01</time>
   <time name="total">    0.78    0.78</time>
   <energy>
    <i name="alphaZ">     -6.47188209 </i>
    <i name="ewald">  -2347.41496354 </i>
    <i name="hartreedc">     -3.50577957 </i>
    <i name="XCdc">   -836.15839310 </i>
    <i name="pawpsdc">   1132.93956389 </i>
    <i name="pawaedc">   -110.42013871 </i>
    <i name="eentropy">     -0.33851367 </i>
    <i name="bandstr">    355.68753814 </i>
    <i name="atom">   1713.20396807 </i>
    <i name="e_fr_energy">   -102.47860058 </i>
    <i name="e_wo_entrp">   -102.14008691 </i>
    <i name="e_0_energy">   -102.36576269 </i>
   </energy>
  </scstep>
  <structure>
   <crystal>
    <varray name="basis" >
     <v>       8.10000000       0.00000000       0.00000000 </v>
     <v>       0.00000000       8.10000000       0.00000000 </v>
     <v>       0.00000000       0.00000000       8.10000000 </v>
    </varray>
    <i name="volume">    531.44100000 </i>
    <varray name="rec_basis" >
     <v>       0.12345679       0.00000000       0.00000000 </v>
     <v>       0.00000000       0.12345679       0.00000000 </v>
     <v>       0.00000000       0.00000000       0.12345679 </v>
    </varray>
   </crystal>
   <varray name="positions" >
    <v>       0.00000000       0.00000000       0.00000000 </v>
    <v>       0.25000000       0.00000000       0.25000000 </v>
    <v>       0.25000000       0.25000000       0.00000000 </v>
    <v>       0.00000000       0.25000000       0.25000000 </v>
    <v>       0.50000000       0.00000000       0.00000000 </v>
    <v>       0.75000000       0.00000000       0.25000000 </v>
    <v>       0.75000000       0.25000000       0.00000000 </v>
    <v>       0.50000000       0.25000000       0.25000000 </v>
    <v>       0.00000000       0.50000000       0.00000000 </v>
    <v>       0.25000000       0.50000000       0.25000000 </v>
    <v>       0.25000000       0.75000000       0.00000000 </v>
    <v>       0.00000000       0.75000000       0.25000000 </v>
    <v>       0.50000000       0.50000000       0.00000000 </v>
    <v>       0.75000000       0.50000000       0.25000000 </v>
    <v>       0.75000000       0.75000000       0.00000000 </v>
    <v>       0.50000000       0.75000000       0.25000000 </v>
    <v>       0.00000000       0.00000000       0.50000000 </v>
    <v>       0.25000000       0.00000000       0.75000000 </v>
    <v>       0.25000000       0.25000000       0.50000000 </v>
    <v>       0.00000000       0.25000000       0.75000000 </v>
    <v>       0.50000000       0.00000000       0.50000000 </v>
    <v>       0.75000000       0.00000000       0.75000000 </v>
    <v>       0.75000000       0.25000000       0.50000000 </v>
    <v>       0.50000000       0.25000000       0.75000000 </v>
    <v>       0.00000000       0.50000000       0.50000000 </v>
    <v>       0.25000000       0.50000000       0.75000000 </v>
    <v>       0.25000000       0.75000000       0.50000000 </v>
    <v>       0.00000000       0.75000000       0.75000000 </v>
    <v>       0.50000000       0.50000000       0.50000000 </v>
    <v>       0.75000000       0.50000000       0.75000000 </v>
    <v>       0.75000000       0.75000000       0.50000000 </v>
    <v>       0.50000000       0.75000000       0.75000000 </v>
   </varray>
  </structure>
  <varray name="forces" >
   <v>       0.00000000       0.00000000       0.00000000 </v>
   <v>       0.00000000       0.00000000       0.00000000 </v>
   <v>       0.00000000       0.00000000       0.00000000 </v>
   <v>       0.00000000       0.00000000       0.00000000 </v>
   <v>       0.00000000       0.00000000       0.00000000 </v>
   <v>       0.00000000       0.00000000       0.00000000 </v>
   <v>       0.00000000       0.00000000       0.00000000 </v>
   <v>       0.00000000       0.00000000       0.00000000 </v>
   <v>       0.00000000       0.00000000       0.00000000 </v>
   <v>       0.00000000       0.00000000       0.00000000 </v>
   <v>       0.00000000       0.00000000       0.00000000 </v>
   <v>       0.00000000       0.00000000       0.00000000 </v>
   <v>       0.00000000       0.00000000       0.00000000 </v>
   <v>       0.00000000       0.00000000       0.00000000 </v>
   <v>       0.00000000       0.00000000       0.00000000 </v>
   <v>       0.00000000       0.00000000       0.00000000 </v>
   <v>       0.00000000       0.00000000       0.00000000 </v>
   <v>       0.00000000       0.00000000       0.00000000 </v>
   <v>       0.00000000       0.00000000       0.00000000 </v>
   <v>       0.00000000       0.00000000       0.00000000 </v>
   <v>       0.00000000       0.00000000       0.00000000 </v>
   <v>       0.00000000       0.00000000       0.00000000 </v>
   <v>       0.00000000       0.00000000       0.00000000 </v>
   <v>       0.00000000       0.00000000       0.00000000 </v>
   <v>       0.00000000       0.00000000       0.00000000 </v>
   <v>       0.00000000       0.00000000       0.00000000 </v>
   <v>       0.00000000       0.00000000       0.00000000 </v>
   <v>       0.00000000       0.00000000       0.00000000 </v>
   <v>       0.00000000       0.00000000       0.00000000 </v>
   <v>       0.00000000       0.00000000       0.00000000 </v>
   <v>       0.00000000       0.00000000       0.00000000 </v>
   <v>       0.00000000       0.00000000       0.00000000 </v>
  </varray>
  <varray name="stress" >
   <v>     -37.57376583       0.00000000       0.00000000 </v>
   <v>       0.00000000     -37.57376583       0.00000000 </v>
   <v>       0.00000000       0.00000000     -37.57376583 </v>
  </varray>
  <energy>
   <i name="e_fr_energy">   -102.47860058 </i>
   <i name="e_wo_entrp">   -102.36576269 </i>
   <i name="e_0_energy">     -0.33851367 </i>
  </energy>
  <time name="totalsc">   13.16   13.19</time>
 </calculation>
 <calculation>
  <scstep>
   <time name="diag">    0.15    0.15</time>
   <time name="diis">    0.61    0.61</time>
   <time name="orth">    0.01    0.01</time>
   <time name="total">    1.25    1.25</time>
   <energy>
    <i name="alphaZ">     -6.85083896 </i>
    <i name="ewald">  -2392.36582330 </i>
    <i name="hartreedc">     -3.57391859 </i>
    <i name="XCdc">   -833.17637855 </i>
    <i name="pawpsdc">   1132.84557508 </i>
    <i name="pawaedc">   -110.32440364 </i>
    <i name="eentropy">     -0.33851375 </i>
    <i name="bandstr">    397.84669657 </i>
    <i name="atom">   1713.20396807 </i>
    <i name="e_fr_energy">   -102.73363708 </i>
    <i name="e_wo_entrp">   -102.39512333 </i>
    <i name="e_0_energy">   -102.62079917 </i>
   </energy>
  </scstep>
  <scstep>
   <time name="diag">    0.15    0.15</time>
   <time name="diis">    0.59    0.59</time>
   <time name="orth">    0.01    0.01</time>
   <time name="total">    1.21    1.21</time>
   <energy>
    <i name="e_fr_energy">   -102.71541476 </i>
    <i name="e_wo_entrp">   -102.37690101 </i>
    <i name="e_0_energy">   -102.60257684 </i>
   </energy>
  </scstep>
  <scstep>
   <time name="diag">    0.15    0.15</time>
   <time name="diis">    0.61    0.61</time>
   <time name="orth">    0.01    0.01</time>
   <time name="total">    1.23    1.23</time>
   <energy>
    <i name="e_fr_energy">   -102.70241625 </i>
    <i name="e_wo_entrp">   -102.36390251 </i>
    <i name="e_0_energy">   -102.58957834 </i>
   </energy>
  </scstep>
  <scstep>
   <time name="diag">    0.15    0.15</time>
   <time name="diis">    0.40    0.40</time>
   <time name="orth">    0.01    0.01</time>
   <time name="total">    0.72    0.73</time>
   <energy>
    <i name="alphaZ">     -6.85083896 </i>
    <i name="ewald">  -2392.36582330 </i>
    <i name="hartreedc">     -3.88731022 </i>
    <i name="XCdc">   -832.50238865 </i>
    <i name="pawpsdc">   1139.47650846 </i>
    <i name="pawaedc">   -117.30057443 </i>
    <i name="eentropy">     -0.33851375 </i>
    <i name="bandstr">    397.86254199 </i>
    <i name="atom">   1713.20396807 </i>
    <i name="e_fr_energy">   -102.70243079 </i>
    <i name="e_wo_entrp">   -102.36391704 </i>
    <i name="e_0_energy">   -102.58959287 </i>
   </energy>
  </scstep>
  <structure>
   <crystal>
    <varray name="basis" >
     <v>       7.94780674       0.00000000       0.00000000 </v>
     <v>       0.00000000       7.94780674       0.00000000 </v>
     <v>       0.00000000       0.00000000       7.94780674 </v>
    </varray>
    <i name="volume">    502.04413035 </i>
    <varray name="rec_basis" >
     <v>       0.12582088       0.00000000       0.00000000 </v>
     <v>       0.00000000       0.12582088       0.00000000 </v>
     <v>       0.00000000       0.00000000       0.12582088 </v>
    </varray>
   </crystal>
   <varray name="positions" >
    <v>       0.00000000       0.00000000       0.00000000 </v>
    <v>       0.25000000       0.00000000       0.25000000 </v>
    <v>       0.25000000       0.25000000       0.00000000 </v>
    <v>       0.00000000       0.25000000       0.25000000 </v>
    <v>       0.50000000       0.00000000       0.00000000 </v>
    <v>       0.75000000       0.00000000       0.25000000 </v>
    <v>       0.75000000       0.25000000       0.00000000 </v>
    <v>       0.50000000       0.25000000       0.25000000 </v>
    <v>       0.00000000       0.50000000       0.00000000 </v>
    <v>       0.25000000       0.50000000       0.25000000 </v>
    <v>       0.25000000       0.75000000       0.00000000 </v>
    <v>       0.00000000       0.75000000       0.25000000 </v>
    <v>       0.50000000       0.50000000       0.00000000 </v>
    <v>       0.75000000       0.50000000       0.25000000 </v>
    <v>       0.75000000       0.75000000       0.00000000 </v>
    <v>       0.50000000       0.75000000       0.25000000 </v>
    <v>       0.00000000       0.00000000       0.50000000 </v>
    <v>       0.25000000       0.00000000       0.75000000 </v>
    <v>       0.25000000       0.25000000       0.50000000 </v>
    <v>       0.00000000       0.25000000       0.75000000 </v>
    <v>       0.50000000       0.00000000       0.50000000 </v>
    <v>       0.75000000       0.00000000       0.75000000 </v>
    <v>       0.75000000       0.25000000       0.50000000 </v>
    <v>       0.50000000       0.25000000       0.75000000 </v>
    <v>       0.00000000       0.50000000       0.50000000 </v>
    <v>       0.25000000       0.50000000       0.75000000 </v>
    <v>       0.25000000       0.75000000       0.50000000 </v>
    <v>       0.00000000       0.75000000       0.75000000 </v>
    <v>       0.50000000       0.50000000       0.50000000 </v>
    <v>       0.75000000       0.50000000       0.75000000 </v>
    <v>       0.75000000       0.75000000       0.50000000 </v>
    <v>       0.50000000       0.75000000       0.75000000 </v>
   </varray>
  </structure>
  <varray name="forces" >
   <v>       0.00000000       0.00000000       0.00000000 </v>
   <v>       0.00000000       0.00000000       0.00000000 </v>
   <v>       0.00000000       0.00000000       0.00000000 </v>
   <v>       0.00000000       0.00000000       0.00000000 </v>
   <v>       0.00000000       0.00000000       0.00000000 </v>
   <v>       0.00000000       0.00000000       0.00000000 </v>
   <v>       0.00000000       0.00000000       0.00000000 </v>
   <v>       0.00000000       0.00000000       0.00000000 </v>
   <v>       0.00000000       0.00000000       0.00000000 </v>
   <v>       0.00000000       0.00000000       0.00000000 </v>
   <v>       0.00000000       0.00000000       0.00000000 </v>
   <v>       0.00000000       0.00000000       0.00000000 </v>
   <v>       0.00000000       0.00000000       0.00000000 </v>
   <v>       0.00000000       0.00000000       0.00000000 </v>
   <v>       0.00000000       0.00000000       0.00000000 </v>
   <v>       0.00000000       0.00000000       0.00000000 </v>
   <v>       0.00000000       0.00000000       0.00000000 </v>
   <v>       0.00000000       0.00000000       0.00000000 </v>
   <v>       0.00000000       0.00000000       0.00000000 </v>
   <v>       0.00000000       0.00000000       0.00000000 </v>
   <v>       0.00000000       0.00000000       0.00000000 </v>
   <v>       0.00000000       0.00000000       0.00000000 </v>
   <v>       0.00000000       0.00000000       0.00000000 </v>
   <v>       0.00000000       0.00000000       0.00000000 </v>
   <v>       0.00000000       0.00000000       0.00000000 </v>
   <v>       0.00000000       0.00000000       0.00000000 </v>
   <v>       0.00000000       0.00000000       0.00000000 </v>
   <v>       0.00000000       0.00000000       0.00000000 </v>
   <v>       0.00000000       0.00000000       0.00000000 </v>
   <v>       0.00000000       0.00000000       0.00000000 </v>
   <v>       0.00000000       0.00000000       0.00000000 </v>
   <v>       0.00000000       0.00000000       0.00000000 </v>
  </varray>
  <varray name="stress" >
   <v>      15.73268987       0.00000000       0.00000000 </v>
   <v>       0.00000000      15.73268987       0.00000000 </v>
   <v>       0.00000000       0.00000000      15.73268987 </v>
  </varray>
  <energy>
   <i name="e_fr_energy">   -102.70243079 </i>
   <i name="e_wo_entrp">   -102.58959287 </i>
   <i name="e_0_energy">     -0.33851375 </i>
  </energy>
  <time name="totalsc">    5.93    5.94</time>
 </calculation>
 <calculation>
  <scstep>
   <time name="diag">    0.15    0.15</time>
   <time name="diis">    0.63    0.63</time>
   <time name="orth">    0.01    0.01</time>
   <time name="total">    1.25    1.26</time>
   <energy>
    <i name="alphaZ">     -6.74583348 </i>
    <i name="ewald">  -2380.07992989 </i>
    <i name="hartreedc">     -3.87331364 </i>
    <i name="XCdc">   -833.31505858 </i>
    <i name="pawpsdc">   1139.32691858 </i>
    <i name="pawaedc">   -117.14942363 </i>
    <i name="eentropy">     -0.33851375 </i>
    <i name="bandstr">    386.22822259 </i>
    <i name="atom">   1713.20396807 </i>
    <i name="e_fr_energy">   -102.74296374 </i>
    <i name="e_wo_entrp">   -102.40444999 </i>
    <i name="e_0_energy">   -102.63012582 </i>
   </energy>
  </scstep>
  <scstep>
   <time name="diag">    0.15    0.15</time>
   <time name="diis">    0.53    0.53</time>
   <time name="orth">    0.01    0.01</time>
   <time name="total">    1.15    1.15</time>
   <energy>
    <i name="e_fr_energy">   -102.74156657 </i>
    <i name="e_wo_entrp">   -102.40305282 </i>
    <i name="e_0_energy">   -102.62872865 </i>
   </energy>
  </scstep>
  <scstep>
   <time name="diag">    0.15    0.15</time>
   <time name="diis">    0.54    0.54</time>
   <time name="orth">    0.01    0.01</time>
   <time name="total">    1.16    1.16</time>
   <energy>
    <i name="e_fr_energy">   -102.74051609 </i>
    <i name="e_wo_entrp">   -102.40200234 </i>
    <i name="e_0_energy">   -102.62767817 </i>
   </energy>
  </scstep>
  <scstep>
   <time name="diag">    0.15    0.15</time>
   <time name="diis">    0.35    0.35</time>
   <time name="orth">    0.01    0.01</time>
   <time name="total">    0.67    0.67</time>
   <energy>
    <i name="alphaZ">     -6.74583348 </i>
    <i name="ewald">  -2380.07992989 </i>
    <i name="hartreedc">     -3.77774116 </i>
    <i name="XCdc">   -833.49202642 </i>
    <i name="pawpsdc">   1137.37575063 </i>
    <i name="pawaedc">   -115.09962940 </i>
    <i name="eentropy">     -0.33851375 </i>
    <i name="bandstr">    386.21343422 </i>
    <i name="atom">   1713.20396807 </i>
    <i name="e_fr_energy">   -102.74052119 </i>
    <i name="e_wo_entrp">   -102.40200744 </i>
    <i name="e_0_energy">   -102.62768328 </i>
   </energy>
  </scstep>
  <structure>
   <crystal>
    <varray name="basis" >
     <v>       7.98883305       0.00000000       0.00000000 </v>
     <v>       0.00000000       7.98883305       0.00000000 </v>
     <v>       0.00000000       0.00000000       7.98883305 </v>
    </varray>
    <i name="volume">    509.85893696 </i>
    <varray name="rec_basis" >
     <v>       0.12517473       0.00000000       0.00000000 </v>
     <v>       0.00000000       0.12517473       0.00000000 </v>
     <v>       0.00000000       0.00000000       0.12517473 </v>
    </varray>
   </crystal>
   <varray name="positions" >
    <v>       0.00000000       0.00000000       0.00000000 </v>
    <v>       0.25000000       0.00000000       0.25000000 </v>
    <v>       0.25000000       0.25000000       0.00000000 </v>
    <v>       0.00000000       0.25000000       0.25000000 </v>
    <v>       0.50000000       0.00000000       0.00000000 </v>
    <v>       0.75000000       0.00000000       0.25000000 </v>
    <v>       0.75000000       0.25000000       0.00000000 </v>
    <v>       0.50000000       0.25000000       0.25000000 </v>
    <v>       0.00000000       0.50000000       0.00000000 </v>
    <v>       0.25000000       0.50000000       0.25000000 </v>
    <v>       0.25000000       0.75000000       0.00000000 </v>
    <v>       0.00000000       0.75000000       0.25000000 </v>
    <v>       0.50000000       0.50000000       0.00000000 </v>
    <v>       0.75000000       0.50000000       0.25000000 </v>
    <v>       0.75000000       0.75000000       0.00000000 </v>
    <v>       0.50000000       0.75000000       0.25000000 </v>
    <v>       0.00000000       0.00000000       0.50000000 </v>
    <v>       0.25000000       0.00000000       0.75000000 </v>
    <v>       0.25000000       0.25000000       0.50000000 </v>
    <v>       0.00000000       0.25000000       0.75000000 </v>
    <v>       0.50000000       0.00000000       0.50000000 </v>
    <v>       0.75000000       0.00000000       0.75000000 </v>
    <v>       0.75000000       0.25000000       0.50000000 </v>
    <v>       0.50000000       0.25000000       0.75000000 </v>
    <v>       0.00000000       0.50000000       0.50000000 </v>
    <v>       0.25000000       0.50000000       0.75000000 </v>
    <v>       0.25000000       0.75000000       0.50000000 </v>
    <v>       0.00000000       0.75000000       0.75000000 </v>
    <v>       0.50000000       0.50000000       0.50000000 </v>
    <v>       0.75000000       0.50000000       0.75000000 </v>
    <v>       0.75000000       0.75000000       0.50000000 </v>
    <v>       0.50000000       0.75000000       0.75000000 </v>
   </varray>
  </structure>
  <varray name="forces" >
   <v>       0.00000000       0.00000000       0.00000000 </v>
   <v>       0.00000000       0.00000000       0.00000000 </v>
   <v>       0.00000000       0.00000000       0.00000000 </v>
   <v>       0.00000000       0.00000000       0.00000000 </v>
   <v>       0.00000000       0.00000000       0.00000000 </v>
   <v>       0.00000000       0.00000000       0.00000000 </v>
   <v>       0.00000000       0.00000000       0.00000000 </v>
   <v>       0.00000000       0.00000000       0.00000000 </v>
   <v>       0.00000000       0.00000000       0.00000000 </v>
   <v>       0.00000000       0.00000000       0.00000000 </v>
   <v>       0.00000000       0.00000000       0.00000000 </v>
   <v>       0.00000000       0.00000000       0.00000000 </v>
   <v>       0.00000000       0.00000000       0.00000000 </v>
   <v>       0.00000000       0.00000000       0.00000000 </v>
   <v>       0.00000000       0.00000000       0.00000000 </v>
   <v>       0.00000000       0.00000000       0.00000000 </v>
   <v>       0.00000000       0.00000000       0.00000000 </v>
   <v>       0.00000000       0.00000000       0.00000000 </v>
   <v>       0.00000000       0.00000000       0.00000000 </v>
   <v>       0.00000000       0.00000000       0.00000000 </v>
   <v>       0.00000000       0.00000000       0.00000000 </v>
   <v>       0.00000000       0.00000000       0.00000000 </v>
   <v>       0.00000000       0.00000000       0.00000000 </v>
   <v>       0.00000000       0.00000000       0.00000000 </v>
   <v>       0.00000000       0.00000000       0.00000000 </v>
   <v>       0.00000000       0.00000000       0.00000000 </v>
   <v>       0.00000000       0.00000000       0.00000000 </v>
   <v>       0.00000000       0.00000000       0.00000000 </v>
   <v>       0.00000000       0.00000000       0.00000000 </v>
   <v>       0.00000000       0.00000000       0.00000000 </v>
   <v>       0.00000000       0.00000000       0.00000000 </v>
   <v>       0.00000000       0.00000000       0.00000000 </v>
  </varray>
  <varray name="stress" >
   <v>       0.08593264       0.00000000       0.00000000 </v>
   <v>       0.00000000       0.08593264       0.00000000 </v>
   <v>       0.00000000       0.00000000       0.08593264 </v>
  </varray>
  <energy>
   <i name="e_fr_energy">   -102.74052119 </i>
   <i name="e_wo_entrp">   -102.62768328 </i>
   <i name="e_0_energy">     -0.33851375 </i>
  </energy>
  <time name="totalsc">    5.64    5.65</time>
  <eigenvalues>
   <array>
    <dimension dim="1">band</dimension>
    <dimension dim="2">kpoint</dimension>
    <dimension dim="3">spin</dimension>
    <field>eigene</field>
    <field>occ</field>
    <set>
     <set comment="spin 1">
      <set comment="kpoint 1">
       <r>   -3.0123    1.0000 </r>
       <r>   -0.7128    1.0000 </r>
       <r>   -0.7128    1.0000 </r>
       <r>   -0.7128    1.0000 </r>
       <r>   -0.7128    1.0000 </r>
       <r>   -0.7128    1.0000 </r>
       <r>   -0.7128    1.0000 </r>
       <r>    1.5491    1.0000 </r>
       <r>    1.5491    1.0000 </r>
       <r>    1.5491    1.0000 </r>
       <r>    1.5491    1.0000 </r>
       <r>    1.5491    1.0000 </r>
       <r>    1.5491    1.0000 </r>
       <r>    1.5491    1.0000 </r>
       <r>    1.5491    1.0000 </r>
       <r>    1.5491    1.0000 </r>
       <r>    1.5491    1.0000 </r>
       <r>    1.5491    1.0000 </r>
       <r>    1.5491    1.0000 </r>
       <r>    3.6358    1.0000 </r>
       <r>    3.6358    1.0000 </r>
       <r>    3.6358    1.0000 </r>
       <r>    3.6358    1.0000 </r>
       <r>    3.9365    1.0000 </r>
       <r>    3.9365    1.0000 </r>
       <r>    3.9365    1.0000 </r>
       <r>    3.9365    1.0000 </r>
       <r>    5.3567    1.0000 </r>
       <r>    5.3567    1.0000 </r>
       <r>    5.3567    1.0000 </r>
       <r>    6.7610    1.0000 </r>
       <r>    6.7610    1.0000 </r>
       <r>    6.7610    1.0000 </r>
       <r>    7.4762    1.0000 </r>
       <r>    7.4762    1.0000 </r>
       <r>    7.4762    1.0000 </r>
       <r>    7.4762    1.0000 </r>
       <r>    7.4762    1.0000 </r>
       <r>    7.4762    1.0000 </r>
       <r>    7.4762    1.0000 </r>
       <r>    7.4762    1.0000 </r>
       <r>    7.4762    1.0000 </r>
       <r>    7.4762    1.0000 </r>
       <r>    7.4762    1.0000 </r>
       <r>    7.4762    1.0000 </r>
       <r>    8.4832    0.5000 </r>
       <r>    8.4832    0.5000 </r>
       <r>    8.4832    0.5000 </r>
       <r>    8.4832    0.5000 </r>
       <r>    8.4832    0.5000 </r>
       <r>    8.4832    0.5000 </r>
       <r>    9.6034    0.0000 </r>
       <r>    9.6034    0.0000 </r>
       <r>    9.6034    0.0000 </r>
       <r>    9.6034    0.0000 </r>
       <r>    9.6034    0.0000 </r>
       <r>    9.6034    0.0000 </r>
       <r>    9.6034    0.0000 </r>
       <r>    9.6034    0.0000 </r>
       <r>    9.6034    0.0000 </r>
       <r>    9.6034    0.0000 </r>
       <r>    9.6508    0.0000 </r>
       <r>    9.6567    0.0000 </r>
       <r>    9.6592    0.0000 </r>
       <r>    9.6592    0.0000 </r>
       <r>    9.6592    0.0000 </r>
       <r>    9.6592    0.0000 </r>
       <r>   11.2171    0.0000 </r>
       <r>   11.2246    0.0000 </r>
       <r>   11.2274    0.0000 </r>
       <r>   11.2274    0.0000 </r>
       <r>   11.2274    0.0000 </r>
      </set>
     </set>
    </set>
   </array>
  </eigenvalues>
  <separator name="orbital magnetization" >
   <v name="MAGDIPOLOUT">      0.00000000      0.00000000      0.00000000</v>
  </separator>
  <dos>
   <i name="efermi">      8.48315605 </i>
   <total>
    <array>
     <dimension dim="1">gridpoints</dimension>
     <dimension dim="2">spin</dimension>
     <field>energy</field>
     <field>total</field>
     <field>integrated</field>
     <set>
      <set comment="spin 1">
       <r>  -5.0123   0.0000   0.0000 </r>
       <r>  -4.9515   0.0000   0.0000 </r>
       <r>  -4.8907   0.0000   0.0000 </r>
       <r>  -4.8299   0.0000   0.0000 </r>
       <r>  -4.7691   0.0000   0.0000 </r>
       <r>  -4.7083   0.0000   0.0000 </r>
       <r>  -4.6475   0.0000   0.0000 </r>
       <r>  -4.5867   0.0000   0.0000 </r>
       <r>  -4.5259   0.0000   0.0000 </r>
       <r>  -4.4651   0.0000   0.0000 </r>
       <r>  -4.4043   0.0000   0.0000 </r>
       <r>  -4.3435   0.0000   0.0000 </r>
       <r>  -4.2827   0.0000   0.0000 </r>
       <r>  -4.2220   0.0000   0.0000 </r>
       <r>  -4.1612   0.0000   0.0000 </r>
       <r>  -4.1004   0.0000   0.0000 </r>
       <r>  -4.0396   0.0000   0.0000 </r>
       <r>  -3.9788   0.0000   0.0000 </r>
       <r>  -3.9180   0.0000   0.0000 </r>
       <r>  -3.8572   0.0000   0.0000 </r>
       <r>  -3.7964   0.0000   0.0000 </r>
       <r>  -3.7356  -0.0001   0.0000 </r>
       <r>  -3.6748  -0.0004   0.0000 </r>
       <r>  -3.6140  -0.0025  -0.0002 </r>
       <r>  -3.5532  -0.0117  -0.0009 </r>
       <r>  -3.4924  -0.0442  -0.0036 </r>
       <r>  -3.4316  -0.1316  -0.0116 </r>
       <r>  -3.3708  -0.2943  -0.0295 </r>
       <r>  -3.3100  -0.4422  -0.0564 </r>
       <r>  -3.2492  -0.2306  -0.0704 </r>
       <r>  -3.1884   0.9009  -0.0156 </r>
       <r>  -3.1276   3.2496   0.1820 </r>
       <r>  -3.0668   6.1810   0.5578 </r>
       <r>  -3.0060   8.1601   1.0539 </r>
       <r>  -2.9452   7.9043   1.5345 </r>
       <r>  -2.8844   5.5877   1.8742 </r>
       <r>  -2.8236   2.6704   2.0366 </r>
       <r>  -2.7628   0.5626   2.0708 </r>
       <r>  -2.7020  -0.3317   2.0506 </r>
       <r>  -2.6412  -0.4248   2.0248 </r>
       <r>  -2.5804  -0.2555   2.0092 </r>
       <r>  -2.5196  -0.1070   2.0027 </r>
       <r>  -2.4588  -0.0341   2.0006 </r>
       <r>  -2.3980  -0.0086   2.0001 </r>
       <r>  -2.3372  -0.0017   2.0000 </r>
       <r>  -2.2764  -0.0003   2.0000 </r>
       <r>  -2.2156   0.0000   2.0000 </r>
       <r>  -2.1548   0.0000   2.0000 </r>
       <r>  -2.0940   0.0000   2.0000 </r>
       <r>  -2.0332   0.0000   2.0000 </r>
       <r>  -1.9724   0.0000   2.0000 </r>
       <r>  -1.9116   0.0000   2.0000 </r>
       <r>  -1.8508   0.0000   2.0000 </r>
       <r>  -1.7900   0.0000   2.0000 </r>
       <r>  -1.7292   0.0000   2.0000 </r>
       <r>  -1.6684   0.0000   2.0000 </r>
       <r>  -1.6076   0.0000   2.0000 </r>
       <r>  -1.5468   0.0000   2.0000 </r>
       <r>  -1.4860  -0.0001   2.0000 </r>
       <r>  -1.4252  -0.0005   2.0000 </r>
       <r>  -1.3644  -0.0035   1.9998 </r>
       <r>  -1.3036  -0.0197   1.9986 </r>
       <r>  -1.2428  -0.0901   1.9931 </r>
       <r>  -1.1820  -0.3282   1.9731 </r>
       <r>  -1.1212  -0.9319   1.9165 </r>
       <r>  -1.0604  -1.9654   1.7970 </r>
       <r>  -0.9996  -2.6728   1.6345 </r>
       <r>  -0.9388  -0.6773   1.5933 </r>
       <r>  -0.8780   7.3945   2.0429 </r>
       <r>  -0.8172  22.5850   3.4160 </r>
       <r>  -0.7564  39.9074   5.8423 </r>
       <r>  -0.6956  49.7745   8.8686 </r>
       <r>  -0.6348  45.6717  11.6454 </r>
       <r>  -0.5740  30.3821  13.4926 </r>
       <r>  -0.5132  13.2610  14.2989 </r>
       <r>  -0.4524   1.9204  14.4156 </r>
       <r>  -0.3916  -2.3367  14.2735 </r>
       <r>  -0.3308  -2.4109  14.1270 </r>
       <r>  -0.2700  -1.3434  14.0453 </r>
       <r>  -0.2092  -0.5339  14.0128 </r>
       <r>  -0.1484  -0.1628  14.0029 </r>
       <r>  -0.0876  -0.0392  14.0005 </r>
       <r>  -0.0268  -0.0076  14.0001 </r>
       <r>   0.0340  -0.0012  14.0000 </r>
       <r>   0.0948  -0.0002  14.0000 </r>
       <r>   0.1556   0.0000  14.0000 </r>
       <r>   0.2164   0.0000  14.0000 </r>
       <r>   0.2772   0.0000  14.0000 </r>
       <r>   0.3380   0.0000  14.0000 </r>
       <r>   0.3988   0.0000  14.0000 </r>
       <r>   0.4596   0.0000  14.0000 </r>
       <r>   0.5204   0.0000  14.0000 </r>
       <r>   0.5812   0.0000  14.0000 </r>
       <r>   0.6420   0.0000  14.0000 </r>
       <r>   0.7028   0.0000  14.0000 </r>
       <r>   0.7636  -0.0001  14.0000 </r>
       <r>   0.8244  -0.0007  14.0000 </r>
       <r>   0.8852  -0.0048  13.9997 </r>
       <r>   0.9460  -0.0282  13.9979 </r>
       <r>   1.0068  -0.1348  13.9898 </r>
       <r>   1.0676  -0.5149  13.9584 </r>
       <r>   1.1284  -1.5416  13.8647 </r>
       <r>   1.1892  -3.4756  13.6534 </r>
       <r>   1.2500  -5.2893  13.3318 </r>
       <r>   1.3108  -2.9376  13.1532 </r>
       <r>   1.3716  10.2882  13.7787 </r>
       <r>   1.4324  38.1418  16.0977 </r>
       <r>   1.4932  73.3422  20.5569 </r>
       <r>   1.5540  97.6180  26.4920 </r>
       <r>   1.6148  95.2816  32.2850 </r>
       <r>   1.6756  67.9250  36.4148 </r>
       <r>   1.7364  32.8544  38.4123 </r>
       <r>   1.7972   7.2012  38.8501 </r>
       <r>   1.8580  -3.8593  38.6155 </r>
       <r>   1.9188  -5.1303  38.3036 </r>
       <r>   1.9796  -3.1209  38.1138 </r>
       <r>   2.0404  -1.3173  38.0337 </r>
       <r>   2.1012  -0.4224  38.0080 </r>
       <r>   2.1620  -0.1066  38.0016 </r>
       <r>   2.2228  -0.0216  38.0002 </r>
       <r>   2.2836  -0.0035  38.0000 </r>
       <r>   2.3444  -0.0005  38.0000 </r>
       <r>   2.4052  -0.0001  38.0000 </r>
       <r>   2.4660   0.0000  38.0000 </r>
       <r>   2.5268   0.0000  38.0000 </r>
       <r>   2.5876   0.0000  38.0000 </r>
       <r>   2.6484   0.0000  38.0000 </r>
       <r>   2.7092   0.0000  38.0000 </r>
       <r>   2.7700   0.0000  38.0000 </r>
       <r>   2.8308   0.0000  38.0000 </r>
       <r>   2.8915  -0.0001  38.0000 </r>
       <r>   2.9523  -0.0009  37.9999 </r>
       <r>   3.0131  -0.0054  37.9996 </r>
       <r>   3.0739  -0.0279  37.9979 </r>
       <r>   3.1347  -0.1145  37.9910 </r>
       <r>   3.1955  -0.3720  37.9683 </r>
       <r>   3.2563  -0.9255  37.9121 </r>
       <r>   3.3171  -1.6369  37.8125 </r>
       <r>   3.3779  -1.5425  37.7188 </r>
       <r>   3.4387   1.3696  37.8020 </r>
       <r>   3.4995   8.8655  38.3410 </r>
       <r>   3.5603  19.7857  39.5440 </r>
       <r>   3.6211  29.0841  41.3123 </r>
       <r>   3.6819  31.6386  43.2359 </r>
       <r>   3.7427  27.9613  44.9359 </r>
       <r>   3.8035  24.3859  46.4186 </r>
       <r>   3.8643  25.9948  47.9990 </r>
       <r>   3.9251  30.5368  49.8556 </r>
       <r>   3.9859  31.1461  51.7493 </r>
       <r>   4.0467  24.3311  53.2286 </r>
       <r>   4.1075  13.3422  54.0398 </r>
       <r>   4.1683   3.9874  54.2822 </r>
       <r>   4.2291  -0.7772  54.2350 </r>
       <r>   4.2899  -1.7930  54.1260 </r>
       <r>   4.3507  -1.2410  54.0505 </r>
       <r>   4.4115  -0.5692  54.0159 </r>
       <r>   4.4723  -0.1954  54.0040 </r>
       <r>   4.5331  -0.0525  54.0008 </r>
       <r>   4.5939  -0.0113  54.0001 </r>
       <r>   4.6547  -0.0023  54.0000 </r>
       <r>   4.7155  -0.0027  53.9998 </r>
       <r>   4.7763  -0.0130  53.9990 </r>
       <r>   4.8371  -0.0572  53.9956 </r>
       <r>   4.8979  -0.2001  53.9834 </r>
       <r>   4.9587  -0.5423  53.9504 </r>
       <r>   5.0195  -1.0766  53.8850 </r>
       <r>   5.0803  -1.3072  53.8055 </r>
       <r>   5.1411   0.0976  53.8114 </r>
       <r>   5.2019   4.7763  54.1018 </r>
       <r>   5.2627  12.8272  54.8817 </r>
       <r>   5.3235  21.2045  56.1709 </r>
       <r>   5.3843  25.0580  57.6944 </r>
       <r>   5.4451  21.8085  59.0204 </r>
       <r>   5.5059  13.6432  59.8499 </r>
       <r>   5.5667   5.3888  60.1775 </r>
       <r>   5.6275   0.3674  60.1998 </r>
       <r>   5.6883  -1.2734  60.1224 </r>
       <r>   5.7491  -1.1237  60.0541 </r>
       <r>   5.8099  -0.5853  60.0185 </r>
       <r>   5.8707  -0.2215  60.0050 </r>
       <r>   5.9315  -0.0647  60.0011 </r>
       <r>   5.9923  -0.0151  60.0002 </r>
       <r>   6.0531  -0.0031  60.0000 </r>
       <r>   6.1139  -0.0024  59.9999 </r>
       <r>   6.1747  -0.0112  59.9992 </r>
       <r>   6.2355  -0.0501  59.9961 </r>
       <r>   6.2963  -0.1791  59.9852 </r>
       <r>   6.3571  -0.4983  59.9550 </r>
       <r>   6.4179  -1.0242  59.8927 </r>
       <r>   6.4787  -1.3289  59.8119 </r>
       <r>   6.5395  -0.1603  59.8021 </r>
       <r>   6.6003   4.1540  60.0547 </r>
       <r>   6.6611  11.9582  60.7817 </r>
       <r>   6.7219  20.5144  62.0290 </r>
       <r>   6.7827  24.9872  63.5482 </r>
       <r>   6.8435  22.3960  64.9099 </r>
       <r>   6.9043  14.4529  65.7886 </r>
       <r>   6.9651   5.8007  66.1413 </r>
       <r>   7.0259  -0.2452  66.1264 </r>
       <r>   7.0867  -3.6557  65.9041 </r>
       <r>   7.1475  -5.7612  65.5538 </r>
       <r>   7.2083  -5.6328  65.2114 </r>
       <r>   7.2691   1.8379  65.3231 </r>
       <r>   7.3299  22.8184  66.7104 </r>
       <r>   7.3907  56.2760  70.1320 </r>
       <r>   7.4515  88.4355  75.5088 </r>
       <r>   7.5123 100.1316  81.5967 </r>
       <r>   7.5731  83.4823  86.6723 </r>
       <r>   7.6339  49.5963  89.6877 </r>
       <r>   7.6947  17.8636  90.7738 </r>
       <r>   7.7555  -0.1330  90.7658 </r>
       <r>   7.8163  -5.2806  90.4447 </r>
       <r>   7.8771  -4.2173  90.1883 </r>
       <r>   7.9379  -2.1444  90.0579 </r>
       <r>   7.9987  -1.0008  89.9971 </r>
       <r>   8.0595  -0.9499  89.9393 </r>
       <r>   8.1203  -1.7320  89.8340 </r>
       <r>   8.1811  -2.6340  89.6739 </r>
       <r>   8.2419  -1.6236  89.5752 </r>
       <r>   8.3027   4.6564  89.8583 </r>
       <r>   8.3635  18.2590  90.9684 </r>
       <r>   8.4243  35.8651  93.1490 </r>
       <r>   8.4851  48.4928  96.0973 </r>
       <r>   8.5459  48.0306  99.0175 </r>
       <r>   8.6067  34.7936 101.1329 </r>
       <r>   8.6675  17.2134 102.1795 </r>
       <r>   8.7283   4.0464 102.4255 </r>
       <r>   8.7891  -1.8043 102.3158 </r>
       <r>   8.8499  -2.5939 102.1581 </r>
       <r>   8.9107  -1.6154 102.0599 </r>
       <r>   8.9715  -0.7028 102.0171 </r>
       <r>   9.0323  -0.2871 101.9997 </r>
       <r>   9.0931  -0.3308 101.9796 </r>
       <r>   9.1539  -0.9643 101.9209 </r>
       <r>   9.2147  -2.5875 101.7636 </r>
       <r>   9.2755  -5.1916 101.4480 </r>
       <r>   9.3363  -6.5528 101.0496 </r>
       <r>   9.3971  -0.4472 101.0224 </r>
       <r>   9.4579  21.3260 102.3190 </r>
       <r>   9.5187  60.5908 106.0029 </r>
       <r>   9.5795 104.3672 112.3483 </r>
       <r>   9.6403 129.0787 120.1962 </r>
       <r>   9.7011 119.0085 127.4318 </r>
       <r>   9.7619  80.8198 132.3456 </r>
       <r>   9.8227  37.1761 134.6059 </r>
       <r>   9.8835   7.1654 135.0415 </r>
       <r>   9.9443  -5.0825 134.7325 </r>
       <r>  10.0051  -6.1496 134.3586 </r>
       <r>  10.0658  -3.6789 134.1349 </r>
       <r>  10.1266  -1.5540 134.0405 </r>
       <r>  10.1874  -0.5037 134.0098 </r>
       <r>  10.2482  -0.1295 134.0020 </r>
       <r>  10.3090  -0.0269 134.0003 </r>
       <r>  10.3698  -0.0045 134.0000 </r>
       <r>  10.4306  -0.0007 134.0000 </r>
       <r>  10.4914  -0.0003 134.0000 </r>
       <r>  10.5522  -0.0015 133.9999 </r>
       <r>  10.6130  -0.0093 133.9993 </r>
       <r>  10.6738  -0.0459 133.9965 </r>
       <r>  10.7346  -0.1806 133.9856 </r>
       <r>  10.7954  -0.5599 133.9515 </r>
       <r>  10.8562  -1.3174 133.8714 </r>
       <r>  10.9170  -2.1441 133.7411 </r>
       <r>  10.9778  -1.5604 133.6462 </r>
       <r>  11.0386   3.1534 133.8379 </r>
       <r>  11.0994  13.9453 134.6858 </r>
       <r>  11.1602  28.5574 136.4220 </r>
       <r>  11.2210  39.8022 138.8420 </r>
       <r>  11.2818  40.5525 141.3075 </r>
       <r>  11.3426  30.2970 143.1496 </r>
       <r>  11.4034  15.6435 144.1007 </r>
       <r>  11.4642   4.1453 144.3527 </r>
       <r>  11.5250  -1.2640 144.2759 </r>
       <r>  11.5858  -2.1949 144.1424 </r>
       <r>  11.6466  -1.4313 144.0554 </r>
       <r>  11.7074  -0.6320 144.0170 </r>
       <r>  11.7682  -0.2104 144.0042 </r>
       <r>  11.8290  -0.0549 144.0008 </r>
       <r>  11.8898  -0.0115 144.0001 </r>
       <r>  11.9506  -0.0019 144.0000 </r>
       <r>  12.0114  -0.0003 144.0000 </r>
       <r>  12.0722   0.0000 144.0000 </r>
       <r>  12.1330   0.0000 144.0000 </r>
       <r>  12.1938   0.0000 144.0000 </r>
       <r>  12.2546   0.0000 144.0000 </r>
       <r>  12.3154   0.0000 144.0000 </r>
       <r>  12.3762   0.0000 144.0000 </r>
       <r>  12.4370   0.0000 144.0000 </r>
       <r>  12.4978   0.0000 144.0000 </r>
       <r>  12.5586   0.0000 144.0000 </r>
       <r>  12.6194   0.0000 144.0000 </r>
       <r>  12.6802   0.0000 144.0000 </r>
       <r>  12.7410   0.0000 144.0000 </r>
       <r>  12.8018   0.0000 144.0000 </r>
       <r>  12.8626   0.0000 144.0000 </r>
       <r>  12.9234   0.0000 144.0000 </r>
       <r>  12.9842   0.0000 144.0000 </r>
       <r>  13.0450   0.0000 144.0000 </r>
       <r>  13.1058   0.0000 144.0000 </r>
       <r>  13.1666   0.0000 144.0000 </r>
       <r>  13.2274   0.0000 144.0000 </r>
      </set>
     </set>
    </array>
   </total>
  </dos>
 </calculation>
 <structure name="finalpos" >
  <crystal>
   <varray name="basis" >
    <v>       7.98883305       0.00000000       0.00000000 </v>
    <v>       0.00000000       7.98883305       0.00000000 </v>
    <v>       0.00000000       0.00000000       7.98883305 </v>
   </varray>
   <i name="volume">    509.85893696 </i>
   <varray name="rec_basis" >
    <v>       0.12517473       0.00000000       0.00000000 </v>
    <v>       0.00000000       0.12517473       0.00000000 </v>
    <v>       0.00000000       0.00000000       0.12517473 </v>
   </varray>
  </crystal>
  <varray name="positions" >
   <v>       0.00000000       0.00000000       0.00000000 </v>
   <v>       0.25000000       0.00000000       0.25000000 </v>
   <v>       0.25000000       0.25000000       0.00000000 </v>
   <v>       0.00000000       0.25000000       0.25000000 </v>
   <v>       0.50000000       0.00000000       0.00000000 </v>
   <v>       0.75000000       0.00000000       0.25000000 </v>
   <v>       0.75000000       0.25000000       0.00000000 </v>
   <v>       0.50000000       0.25000000       0.25000000 </v>
   <v>       0.00000000       0.50000000       0.00000000 </v>
   <v>       0.25000000       0.50000000       0.25000000 </v>
   <v>       0.25000000       0.75000000       0.00000000 </v>
   <v>       0.00000000       0.75000000       0.25000000 </v>
   <v>       0.50000000       0.50000000       0.00000000 </v>
   <v>       0.75000000       0.50000000       0.25000000 </v>
   <v>       0.75000000       0.75000000       0.00000000 </v>
   <v>       0.50000000       0.75000000       0.25000000 </v>
   <v>       0.00000000       0.00000000       0.50000000 </v>
   <v>       0.25000000       0.00000000       0.75000000 </v>
   <v>       0.25000000       0.25000000       0.50000000 </v>
   <v>       0.00000000       0.25000000       0.75000000 </v>
   <v>       0.50000000       0.00000000       0.50000000 </v>
   <v>       0.75000000       0.00000000       0.75000000 </v>
   <v>       0.75000000       0.25000000       0.50000000 </v>
   <v>       0.50000000       0.25000000       0.75000000 </v>
   <v>       0.00000000       0.50000000       0.50000000 </v>
   <v>       0.25000000       0.50000000       0.75000000 </v>
   <v>       0.25000000       0.75000000       0.50000000 </v>
   <v>       0.00000000       0.75000000       0.75000000 </v>
   <v>       0.50000000       0.50000000       0.50000000 </v>
   <v>       0.75000000       0.50000000       0.75000000 </v>
   <v>       0.75000000       0.75000000       0.50000000 </v>
   <v>       0.50000000       0.75000000       0.75000000 </v>
  </varray>
 </structure>
</modeling>
