Processors received = 12
script running on host compute-1-24.local
PBS_NODEFILE
compute-1-24
compute-1-24
compute-1-24
compute-1-24
compute-1-24
compute-1-24
compute-1-24
compute-1-24
compute-1-24
compute-1-24
compute-1-24
compute-1-24
 running on   12 nodes
 distr:  one band on    1 nodes,   12 groups
 vasp.5.2.2 15Apr09 complex 
 POSCAR found type information on POSCAR  Al Cu
 POSCAR found :  2 types and   31 ions

 ----------------------------------------------------------------------------- 
|                                                                             |
|  ADVICE TO THIS USER RUNNING 'VASP/VAMP'   (HEAR YOUR MASTER'S VOICE ...):  |
|                                                                             |
|      You have a (more or less) 'large supercell' and for larger cells       |
|      it might be more efficient to use real space projection operators      |
|      So try LREAL= Auto  in the INCAR   file.                               |
|      Mind: If you want to do a very accurate calculations keep the          |
|      reciprocal projection scheme          (i.e. LREAL=.FALSE.)             |
|                                                                             |
 ----------------------------------------------------------------------------- 

 LDA part: xc-table for Pade appr. of Perdew
 POSCAR, INCAR and KPOINTS ok, starting setup
 FFT: planning ...(           1 )
 reading WAVECAR
 entering main loop
       N       E                     dE             d eps       ncg     rms          rms(c)
RMM:   1     0.298547757866E+03    0.29855E+03   -0.18228E+04   144   0.609E+02
RMM:   2    -0.289806486586E+02   -0.32753E+03   -0.31960E+03   144   0.135E+02
RMM:   3    -0.916104618623E+02   -0.62630E+02   -0.62771E+02   144   0.483E+01
RMM:   4    -0.106123919151E+03   -0.14513E+02   -0.13506E+02   144   0.465E+01
RMM:   5    -0.113350989498E+03   -0.72271E+01   -0.59709E+01   144   0.232E+01
RMM:   6    -0.116551120164E+03   -0.32001E+01   -0.25838E+01   144   0.218E+01
RMM:   7    -0.118050146853E+03   -0.14990E+01   -0.13133E+01   144   0.109E+01
RMM:   8    -0.118831720323E+03   -0.78157E+00   -0.66589E+00   144   0.971E+00
RMM:   9    -0.119639026320E+03   -0.80731E+00   -0.76788E+00   389   0.507E+00
RMM:  10    -0.119716258688E+03   -0.77232E-01   -0.31723E-01   320   0.454E-01
RMM:  11    -0.119720469594E+03   -0.42109E-02   -0.13893E-02   250   0.936E-02
RMM:  12    -0.119720568817E+03   -0.99223E-04   -0.46044E-04   214   0.294E-02    0.299E+01
RMM:  13    -0.156386777913E+03   -0.36666E+02   -0.41444E+02   414   0.580E+01    0.242E+01
RMM:  14    -0.123494711842E+03    0.32892E+02   -0.66848E+01   288   0.222E+01    0.138E+01
RMM:  15    -0.114790105905E+03    0.87046E+01   -0.41195E+01   288   0.232E+01    0.365E+00
RMM:  16    -0.114886771762E+03   -0.96666E-01   -0.98245E-01   300   0.218E+00    0.812E-01
RMM:  17    -0.114865285017E+03    0.21487E-01   -0.82579E-02   307   0.988E-01    0.508E-01
RMM:  18    -0.114884858664E+03   -0.19574E-01   -0.53467E-02   289   0.900E-01    0.108E+00
RMM:  19    -0.114872473718E+03    0.12385E-01   -0.25293E-01   288   0.191E+00    0.777E-01
RMM:  20    -0.114862661331E+03    0.98124E-02   -0.13378E-02   278   0.519E-01    0.280E-01
RMM:  21    -0.114861034121E+03    0.16272E-02   -0.73501E-03   269   0.318E-01    0.839E-03
RMM:  22    -0.114861051702E+03   -0.17581E-04   -0.13836E-04   186   0.321E-02
   1 F= -.11486105E+03 E0= -.11486296E+03  d E =-.114861E+03
 curvature:   0.00 expect dE= 0.000E+00 dE for cont linesearch  0.000E+00
 trial: gam= 0.00000 g(F)=  0.224E+00 g(S)=  0.000E+00 ort = 0.000E+00 (trialstep = 0.100E+01)
 search vector abs. value=  0.224E+00
 bond charge predicted
       N       E                     dE             d eps       ncg     rms          rms(c)
RMM:   1    -0.115055374567E+03   -0.19434E+00   -0.14051E+00   288   0.323E+00    0.248E-01
RMM:   2    -0.115049304729E+03    0.60698E-02   -0.19414E-02   294   0.429E-01    0.107E-01
RMM:   3    -0.115049049131E+03    0.25560E-03   -0.28279E-03   301   0.178E-01    0.628E-02
RMM:   4    -0.115049023534E+03    0.25597E-04   -0.70571E-04   230   0.107E-01
   2 F= -.11504902E+03 E0= -.11504836E+03  d E =-.187972E+00
 trial-energy change:   -0.187972  1 .order   -0.188188   -0.224115   -0.152260
 step:   3.1190(harm=  3.1190)  dis= 0.07268  next Energy=  -115.210556 (dE=-0.350E+00)
 bond charge predicted
       N       E                     dE             d eps       ncg     rms          rms(c)
RMM:   1    -0.115248335577E+03   -0.19929E+00   -0.62163E+00   288   0.679E+00    0.536E-01
RMM:   2    -0.115220837582E+03    0.27498E-01   -0.92020E-02   293   0.916E-01    0.253E-01
RMM:   3    -0.115220158856E+03    0.67873E-03   -0.14201E-02   313   0.427E-01    0.184E-01
RMM:   4    -0.115219681507E+03    0.47735E-03   -0.52383E-03   279   0.283E-01    0.120E-01
RMM:   5    -0.115219581924E+03    0.99583E-04   -0.70325E-04   245   0.109E-01
   3 F= -.11521958E+03 E0= -.11521262E+03  d E =-.358530E+00
 curvature:  -1.56 expect dE=-0.316E-01 dE for cont linesearch -0.831E-03
 trial: gam= 0.04173 g(F)=  0.203E-01 g(S)=  0.000E+00 ort = 0.109E-01 (trialstep = 0.142E+01)
 search vector abs. value=  0.216E-01
 bond charge predicted
       N       E                     dE             d eps       ncg     rms          rms(c)
RMM:   1    -0.115244832484E+03   -0.25151E-01   -0.27066E-01   288   0.141E+00    0.115E-01
RMM:   2    -0.115243727946E+03    0.11045E-02   -0.40736E-03   288   0.206E-01    0.532E-02
RMM:   3    -0.115243651393E+03    0.76553E-04   -0.59556E-04   279   0.826E-02
   4 F= -.11524365E+03 E0= -.11523696E+03  d E =-.240695E-01
 trial-energy change:   -0.024069  1 .order   -0.024036   -0.029529   -0.018543
 step:   3.8268(harm=  3.8268)  dis= 0.03734  next Energy=  -115.259265 (dE=-0.397E-01)
 bond charge predicted
       N       E                     dE             d eps       ncg     rms          rms(c)
RMM:   1    -0.115262651577E+03   -0.18924E-01   -0.77325E-01   288   0.239E+00    0.205E-01
RMM:   2    -0.115259431879E+03    0.32197E-02   -0.11757E-02   292   0.347E-01    0.895E-02
RMM:   3    -0.115259187025E+03    0.24485E-03   -0.15277E-03   295   0.119E-01    0.399E-02
RMM:   4    -0.115259195085E+03   -0.80597E-05   -0.12250E-04   175   0.429E-02
   5 F= -.11525920E+03 E0= -.11525298E+03  d E =-.396132E-01
 curvature:  -1.99 expect dE=-0.543E-02 dE for cont linesearch -0.872E-06
 trial: gam= 0.15953 g(F)=  0.272E-02 g(S)=  0.000E+00 ort =-0.972E-04 (trialstep = 0.190E+01)
 search vector abs. value=  0.324E-02
 reached required accuracy - stopping structural energy minimisation
