  31  31   0   0
  0.1706110E+02  0.8087040E-09  0.8087040E-09  0.8087040E-09  0.5000000E-15
  1.000000000000000E-004
  CAR 
 unknown system                          
     12.55995447     -5.03916913  301      7.75235998      1.00000000
     -5.039  0.0000E+00  0.0000E+00
     -4.981  0.0000E+00  0.0000E+00
     -4.922  0.0000E+00  0.0000E+00
     -4.863  0.0000E+00  0.0000E+00
     -4.805  0.0000E+00  0.0000E+00
     -4.746  0.0000E+00  0.0000E+00
     -4.687 -0.1266E-29 -0.7428E-31
     -4.629 -0.1399E-27 -0.8281E-29
     -4.570 -0.1309E-25 -0.7762E-27
     -4.511 -0.1029E-23 -0.6116E-25
     -4.453 -0.6801E-22 -0.4051E-23
     -4.394 -0.3775E-20 -0.2255E-21
     -4.335 -0.1760E-18 -0.1055E-19
     -4.277 -0.6889E-17 -0.4147E-18
     -4.218 -0.2164E-15 -0.1311E-16
     -4.159 -0.6046E-14 -0.3678E-15
     -4.101 -0.1392E-12 -0.8533E-14
     -4.042 -0.2685E-11 -0.1660E-12
     -3.983 -0.4335E-10 -0.2709E-11
     -3.925 -0.5850E-09 -0.3702E-10
     -3.866 -0.6590E-08 -0.4236E-09
     -3.807 -0.6186E-07 -0.4053E-08
     -3.749 -0.4828E-06 -0.3237E-07
     -3.690 -0.3122E-05 -0.2155E-06
     -3.631 -0.1665E-04 -0.1192E-05
     -3.573 -0.7278E-04 -0.5462E-05
     -3.514 -0.2577E-03 -0.2058E-04
     -3.455 -0.7256E-03 -0.6314E-04
     -3.397 -0.1562E-02 -0.1548E-03
     -3.338 -0.2316E-02 -0.2906E-03
     -3.279 -0.1363E-02 -0.3706E-03
     -3.221  0.3949E-02 -0.1389E-03
     -3.162  0.1525E-01  0.7558E-03
     -3.103  0.3010E-01  0.2521E-02
     -3.045  0.4157E-01  0.4960E-02
     -2.986  0.4283E-01  0.7473E-02
     -2.927  0.3309E-01  0.9414E-02
     -2.869  0.1829E-01  0.1049E-01
     -2.810  0.5851E-02  0.1083E-01
     -2.751 -0.6918E-03  0.1079E-01
     -2.693 -0.2338E-02  0.1065E-01
     -2.634 -0.1766E-02  0.1055E-01
     -2.575 -0.8943E-03  0.1050E-01
     -2.517 -0.4172E-03  0.1047E-01
     -2.458 -0.4345E-03  0.1045E-01
     -2.399 -0.1047E-02  0.1038E-01
     -2.341 -0.2441E-02  0.1024E-01
     -2.282 -0.4275E-02  0.9991E-02
     -2.223 -0.4478E-02  0.9728E-02
     -2.165  0.1388E-02  0.9810E-02
     -2.106  0.1809E-01  0.1087E-01
     -2.047  0.4577E-01  0.1356E-01
     -1.989  0.7664E-01  0.1805E-01
     -1.930  0.9827E-01  0.2382E-01
     -1.871  0.1021E+00  0.2981E-01
     -1.813  0.8871E-01  0.3501E-01
     -1.754  0.6503E-01  0.3883E-01
     -1.695  0.3938E-01  0.4114E-01
     -1.637  0.1801E-01  0.4219E-01
     -1.578  0.4189E-02  0.4244E-01
     -1.519 -0.2096E-02  0.4232E-01
     -1.461 -0.3294E-02  0.4212E-01
     -1.402 -0.2410E-02  0.4198E-01
     -1.343 -0.1497E-02  0.4190E-01
     -1.285 -0.1459E-02  0.4181E-01
     -1.226 -0.2503E-02  0.4166E-01
     -1.167 -0.4069E-02  0.4142E-01
     -1.109 -0.3901E-02  0.4120E-01
     -1.050  0.2403E-02  0.4134E-01
     -0.991  0.1910E-01  0.4246E-01
     -0.933  0.4516E-01  0.4511E-01
     -0.874  0.7140E-01  0.4929E-01
     -0.815  0.8555E-01  0.5431E-01
     -0.757  0.8261E-01  0.5916E-01
     -0.698  0.6897E-01  0.6320E-01
     -0.639  0.5502E-01  0.6643E-01
     -0.581  0.4503E-01  0.6907E-01
     -0.522  0.3611E-01  0.7119E-01
     -0.463  0.2506E-01  0.7266E-01
     -0.405  0.1306E-01  0.7343E-01
     -0.346  0.3690E-02  0.7364E-01
     -0.287 -0.1201E-02  0.7357E-01
     -0.229 -0.2697E-02  0.7342E-01
     -0.170 -0.3185E-02  0.7323E-01
     -0.111 -0.4407E-02  0.7297E-01
     -0.053 -0.6120E-02  0.7261E-01
      0.006 -0.4955E-02  0.7232E-01
      0.065  0.5467E-02  0.7264E-01
      0.123  0.3069E-01  0.7444E-01
      0.182  0.6843E-01  0.7846E-01
      0.241  0.1053E+00  0.8463E-01
      0.299  0.1243E+00  0.9192E-01
      0.358  0.1181E+00  0.9885E-01
      0.417  0.9480E-01  0.1044E+00
      0.475  0.6910E-01  0.1085E+00
      0.534  0.4946E-01  0.1114E+00
      0.593  0.3510E-01  0.1134E+00
      0.651  0.2246E-01  0.1147E+00
      0.710  0.1097E-01  0.1154E+00
      0.769  0.2510E-02  0.1155E+00
      0.827 -0.2044E-02  0.1154E+00
      0.886 -0.4110E-02  0.1152E+00
      0.945 -0.5888E-02  0.1148E+00
      1.003 -0.7837E-02  0.1144E+00
      1.062 -0.6535E-02  0.1140E+00
      1.121  0.5403E-02  0.1143E+00
      1.179  0.3497E-01  0.1164E+00
      1.238  0.8079E-01  0.1211E+00
      1.297  0.1289E+00  0.1287E+00
      1.355  0.1596E+00  0.1380E+00
      1.414  0.1609E+00  0.1475E+00
      1.473  0.1363E+00  0.1554E+00
      1.531  0.9956E-01  0.1613E+00
      1.590  0.6492E-01  0.1651E+00
      1.648  0.4177E-01  0.1675E+00
      1.707  0.3325E-01  0.1695E+00
      1.766  0.3547E-01  0.1716E+00
      1.824  0.3920E-01  0.1739E+00
      1.883  0.3622E-01  0.1760E+00
      1.942  0.2540E-01  0.1775E+00
      2.000  0.1201E-01  0.1782E+00
      2.059  0.1650E-02  0.1783E+00
      2.118 -0.4049E-02  0.1781E+00
      2.176 -0.6470E-02  0.1777E+00
      2.235 -0.6054E-02  0.1773E+00
      2.294  0.1626E-03  0.1773E+00
      2.352  0.1684E-01  0.1783E+00
      2.411  0.4501E-01  0.1810E+00
      2.470  0.7767E-01  0.1855E+00
      2.528  0.1020E+00  0.1915E+00
      2.587  0.1073E+00  0.1978E+00
      2.646  0.9249E-01  0.2032E+00
      2.704  0.6513E-01  0.2070E+00
      2.763  0.3608E-01  0.2092E+00
      2.822  0.1357E-01  0.2100E+00
      2.880  0.5045E-03  0.2100E+00
      2.939 -0.5034E-02  0.2097E+00
      2.998 -0.6921E-02  0.2093E+00
      3.056 -0.7590E-02  0.2088E+00
      3.115 -0.5692E-02  0.2085E+00
      3.174  0.3754E-02  0.2087E+00
      3.232  0.2584E-01  0.2102E+00
      3.291  0.6046E-01  0.2138E+00
      3.350  0.9993E-01  0.2196E+00
      3.408  0.1327E+00  0.2274E+00
      3.467  0.1499E+00  0.2362E+00
      3.526  0.1490E+00  0.2450E+00
      3.584  0.1332E+00  0.2528E+00
      3.643  0.1096E+00  0.2592E+00
      3.702  0.8749E-01  0.2643E+00
      3.760  0.7457E-01  0.2687E+00
      3.819  0.7316E-01  0.2730E+00
      3.878  0.8010E-01  0.2777E+00
      3.936  0.9065E-01  0.2830E+00
      3.995  0.1022E+00  0.2890E+00
      4.054  0.1137E+00  0.2957E+00
      4.112  0.1217E+00  0.3028E+00
      4.171  0.1196E+00  0.3098E+00
      4.230  0.1027E+00  0.3159E+00
      4.288  0.7325E-01  0.3202E+00
      4.347  0.4225E-01  0.3226E+00
      4.406  0.2434E-01  0.3241E+00
      4.464  0.3044E-01  0.3259E+00
      4.523  0.6089E-01  0.3294E+00
      4.582  0.1037E+00  0.3355E+00
      4.640  0.1411E+00  0.3438E+00
      4.699  0.1612E+00  0.3532E+00
      4.758  0.1634E+00  0.3628E+00
      4.816  0.1553E+00  0.3719E+00
      4.875  0.1444E+00  0.3804E+00
      4.934  0.1333E+00  0.3882E+00
      4.992  0.1201E+00  0.3953E+00
      5.051  0.1028E+00  0.4013E+00
      5.110  0.8334E-01  0.4062E+00
      5.168  0.6569E-01  0.4100E+00
      5.227  0.5223E-01  0.4131E+00
      5.286  0.4123E-01  0.4155E+00
      5.344  0.2950E-01  0.4173E+00
      5.403  0.1663E-01  0.4182E+00
      5.462  0.6354E-02  0.4186E+00
      5.520  0.4114E-02  0.4189E+00
      5.579  0.1301E-01  0.4196E+00
      5.638  0.3072E-01  0.4214E+00
      5.696  0.4970E-01  0.4243E+00
      5.755  0.6134E-01  0.4279E+00
      5.814  0.6153E-01  0.4315E+00
      5.872  0.5238E-01  0.4346E+00
      5.931  0.3935E-01  0.4369E+00
      5.990  0.2776E-01  0.4385E+00
      6.048  0.2146E-01  0.4398E+00
      6.107  0.2221E-01  0.4411E+00
      6.166  0.2832E-01  0.4428E+00
      6.224  0.3459E-01  0.4448E+00
      6.283  0.3522E-01  0.4469E+00
      6.342  0.2766E-01  0.4485E+00
      6.400  0.1450E-01  0.4493E+00
      6.459  0.2413E-02  0.4495E+00
      6.518 -0.4355E-04  0.4495E+00
      6.576  0.1437E-01  0.4503E+00
      6.635  0.4662E-01  0.4531E+00
      6.694  0.8777E-01  0.4582E+00
      6.752  0.1231E+00  0.4654E+00
      6.811  0.1441E+00  0.4739E+00
      6.870  0.1546E+00  0.4830E+00
      6.928  0.1627E+00  0.4925E+00
      6.987  0.1668E+00  0.5023E+00
      7.046  0.1552E+00  0.5114E+00
      7.104  0.1211E+00  0.5185E+00
      7.163  0.7342E-01  0.5228E+00
      7.222  0.2995E-01  0.5246E+00
      7.280  0.2967E-02  0.5247E+00
      7.339 -0.7423E-02  0.5243E+00
      7.398 -0.8649E-02  0.5238E+00
      7.456 -0.7789E-02  0.5233E+00
      7.515 -0.7239E-02  0.5229E+00
      7.574 -0.4258E-02  0.5227E+00
      7.632  0.6919E-02  0.5231E+00
      7.691  0.3041E-01  0.5248E+00
      7.750  0.6336E-01  0.5286E+00
      7.808  0.9562E-01  0.5342E+00
      7.867  0.1177E+00  0.5411E+00
      7.926  0.1302E+00  0.5487E+00
      7.984  0.1426E+00  0.5571E+00
      8.043  0.1619E+00  0.5666E+00
      8.102  0.1830E+00  0.5773E+00
      8.160  0.1920E+00  0.5886E+00
      8.219  0.1783E+00  0.5990E+00
      8.278  0.1435E+00  0.6075E+00
      8.336  0.9850E-01  0.6132E+00
      8.395  0.5652E-01  0.6166E+00
      8.453  0.2554E-01  0.6180E+00
      8.512  0.7039E-02  0.6185E+00
      8.571 -0.1710E-02  0.6184E+00
      8.629 -0.4759E-02  0.6181E+00
      8.688 -0.5661E-02  0.6178E+00
      8.747 -0.6258E-02  0.6174E+00
      8.805 -0.5579E-02  0.6171E+00
      8.864  0.4518E-03  0.6171E+00
      8.923  0.1685E-01  0.6181E+00
      8.981  0.4471E-01  0.6207E+00
      9.040  0.7736E-01  0.6252E+00
      9.099  0.1031E+00  0.6313E+00
      9.157  0.1144E+00  0.6380E+00
      9.216  0.1153E+00  0.6448E+00
      9.275  0.1165E+00  0.6516E+00
      9.333  0.1227E+00  0.6588E+00
      9.392  0.1260E+00  0.6662E+00
      9.451  0.1137E+00  0.6729E+00
      9.509  0.8225E-01  0.6777E+00
      9.568  0.4196E-01  0.6801E+00
      9.627  0.8566E-02  0.6806E+00
      9.685 -0.6439E-02  0.6803E+00
      9.744  0.2165E-02  0.6804E+00
      9.803  0.3505E-01  0.6825E+00
      9.861  0.8653E-01  0.6875E+00
      9.920  0.1415E+00  0.6958E+00
      9.979  0.1799E+00  0.7064E+00
     10.037  0.1881E+00  0.7174E+00
     10.096  0.1674E+00  0.7272E+00
     10.155  0.1292E+00  0.7348E+00
     10.213  0.8616E-01  0.7399E+00
     10.272  0.4727E-01  0.7426E+00
     10.331  0.1986E-01  0.7438E+00
     10.389  0.9162E-02  0.7443E+00
     10.448  0.1483E-01  0.7452E+00
     10.507  0.2900E-01  0.7469E+00
     10.565  0.3993E-01  0.7493E+00
     10.624  0.3959E-01  0.7516E+00
     10.683  0.2861E-01  0.7533E+00
     10.741  0.1422E-01  0.7541E+00
     10.800  0.3411E-02  0.7543E+00
     10.859 -0.1521E-02  0.7542E+00
     10.917 -0.2291E-02  0.7541E+00
     10.976 -0.1501E-02  0.7540E+00
     11.035 -0.6852E-03  0.7539E+00
     11.093 -0.2400E-03  0.7539E+00
     11.152 -0.6694E-04  0.7539E+00
     11.211 -0.1515E-04  0.7539E+00
     11.269 -0.2809E-05  0.7539E+00
     11.328 -0.4301E-06  0.7539E+00
     11.387 -0.5457E-07  0.7539E+00
     11.445 -0.5759E-08  0.7539E+00
     11.504 -0.5066E-09  0.7539E+00
     11.563 -0.3721E-10  0.7539E+00
     11.621 -0.2285E-11  0.7539E+00
     11.680 -0.1175E-12  0.7539E+00
     11.739 -0.5053E-14  0.7539E+00
     11.797 -0.1982E-15  0.7539E+00
     11.856  0.0000E+00  0.7539E+00
     11.915  0.0000E+00  0.7539E+00
     11.973  0.0000E+00  0.7539E+00
     12.032  0.0000E+00  0.7539E+00
     12.091  0.0000E+00  0.7539E+00
     12.149  0.0000E+00  0.7539E+00
     12.208  0.0000E+00  0.7539E+00
     12.267  0.0000E+00  0.7539E+00
     12.325  0.0000E+00  0.7539E+00
     12.384  0.0000E+00  0.7539E+00
     12.443  0.0000E+00  0.7539E+00
     12.501  0.0000E+00  0.7539E+00
     12.560  0.0000E+00  0.7539E+00
