   31   31  191    1
  0.1706110E+02  0.8087040E-09  0.8087040E-09  0.8087040E-09  0.5000000E-15
  1.000000000000000E-004
  CAR 
 unknown system                          
  101    2   72
 
  0.2500000E+00  0.2500000E+00  0.2500000E+00  0.5000000E+00
   1       -3.039169
   2       -1.976419
   3       -1.923954
   4       -1.805362
   5       -0.865129
   6       -0.804193
   7       -0.623665
   8        0.236702
   9        0.273600
  10        0.308153
  11        0.561398
  12        1.292279
  13        1.314772
  14        1.381329
  15        1.400557
  16        1.528535
  17        1.791965
  18        2.466983
  19        2.532815
  20        2.660008
  21        3.320974
  22        3.373985
  23        3.453904
  24        3.528790
  25        3.599596
  26        3.710457
  27        3.879255
  28        3.986814
  29        4.109347
  30        4.169608
  31        4.218109
  32        4.592489
  33        4.630832
  34        4.669127
  35        4.760266
  36        4.804470
  37        4.917796
  38        4.959965
  39        5.006991
  40        5.301188
  41        5.703100
  42        5.932919
  43        6.177659
  44        6.712850
  45        6.772730
  46        6.805692
  47        6.939097
  48        6.982083
  49        7.016571
  50        7.044375
  51        7.781949
  52        7.865464
  53        7.937918
  54        8.030180
  55        8.045915
  56        8.079408
  57        8.147281
  58        8.182177
  59        8.253689
  60        9.083665
  61        9.134677
  62        9.216424
  63        9.358694
  64        9.381862
  65        9.437983
  66        9.859135
  67        9.911108
  68        9.980195
  69       10.026726
  70       10.055926
  71       10.150535
  72       10.559954
 
 -0.2500000E+00  0.2500000E+00  0.2500000E+00  0.5000000E+00
   1       -3.037583
   2       -1.975923
   3       -1.953702
   4       -1.781127
   5       -0.865220
   6       -0.831618
   7       -0.553341
   8        0.235439
   9        0.248732
  10        0.341921
  11        0.482304
  12        1.284477
  13        1.307959
  14        1.328060
  15        1.436701
  16        1.549481
  17        1.826594
  18        2.503249
  19        2.511171
  20        2.634726
  21        3.353598
  22        3.377119
  23        3.476946
  24        3.536015
  25        3.586501
  26        3.775277
  27        3.885406
  28        3.971539
  29        4.114710
  30        4.117424
  31        4.286911
  32        4.550965
  33        4.621434
  34        4.630474
  35        4.764052
  36        4.788418
  37        4.877050
  38        4.999649
  39        5.095848
  40        5.203420
  41        5.699697
  42        5.800874
  43        6.290948
  44        6.712011
  45        6.741620
  46        6.750055
  47        6.902425
  48        6.986098
  49        7.018653
  50        7.063100
  51        7.782071
  52        7.825509
  53        7.862004
  54        8.076825
  55        8.089462
  56        8.166386
  57        8.209443
  58        8.245438
  59        8.371112
  60        9.025415
  61        9.067417
  62        9.143666
  63        9.307748
  64        9.405232
  65        9.429507
  66        9.950784
  67        9.954910
  68        9.964776
  69        9.979425
  70       10.159489
  71       10.174791
  72       10.550827
