 vasp.5.2.2 15Apr09 complex 
 executed on             LinuxIFC date 2017.01.11  13:33:15
 running on   12 nodes
 distr:  one band on    1 nodes,   12 groups


--------------------------------------------------------------------------------------------------------


 INCAR:
 POTCAR:   PAW_PBE Al 04Jan2001                   
 POTCAR:   PAW_PBE Cu 05Jan2001                   
 POTCAR:   PAW_PBE Al 04Jan2001                   
   VRHFIN =Al: s2p1                                                             
   LEXCH  = PE                                                                  
   EATOM  =    53.5387 eV,    3.9350 Ry                                         
                                                                                
   TITEL  = PAW_PBE Al 04Jan2001                                                
   LULTRA =        F    use ultrasoft PP ?                                      
   IUNSCR =        1    unscreen: 0-lin 1-nonlin 2-no                           
   RPACOR =    1.500    partial core radius                                     
   POMASS =   26.982; ZVAL   =    3.000    mass and valenz                      
   RCORE  =    1.900    outmost cutoff radius                                   
   RWIGS  =    2.650; RWIGS  =    1.402    wigner-seitz radius (au A)           
   ENMAX  =  240.300; ENMIN  =  180.225 eV                                      
   ICORE  =        2    local potential                                         
   LCOR   =        T    correct aug charges                                     
   LPAW   =        T    paw PP                                                  
   EAUG   =  291.052                                                            
   DEXC   =    -.041                                                            
   RMAX   =    2.974    core radius for proj-oper                               
   RAUG   =    1.300    factor for augmentation sphere                          
   RDEP   =    1.966    radius for radial grids                                 
   QCUT   =   -4.203; QGAM   =    8.405    optimization parameters              
                                                                                
   Description                                                                  
     l     E      TYP  RCUT    TYP  RCUT                                        
     0   .000     23  1.900                                                     
     0   .000     23  1.900                                                     
     1   .000     23  1.900                                                     
     1  1.000     23  1.900                                                     
     2   .000      7  1.900                                                     
  local pseudopotential read in
  partial core-charges read in
  atomic valenz-charges read in
  non local Contribution for L=           0  read in
    real space projection operators read in
  non local Contribution for L=           0  read in
    real space projection operators read in
  non local Contribution for L=           1  read in
    real space projection operators read in
  non local Contribution for L=           1  read in
    real space projection operators read in
    PAW grid and wavefunctions read in
 
   number of l-projection  operators is LMAX  =           4
   number of lm-projection operators is LMMAX =           8
 
 POTCAR:   PAW_PBE Cu 05Jan2001                   
   VRHFIN =Cu: d10 p1                                                           
   LEXCH  = PE                                                                  
   EATOM  =  1390.9800 eV,  102.2341 Ry                                         
                                                                                
   TITEL  = PAW_PBE Cu 05Jan2001                                                
   LULTRA =        F    use ultrasoft PP ?                                      
   IUNSCR =        1    unscreen: 0-lin 1-nonlin 2-no                           
   RPACOR =    2.000    partial core radius                                     
   POMASS =   63.546; ZVAL   =   11.000    mass and valenz                      
   RCORE  =    2.300    outmost cutoff radius                                   
   RWIGS  =    2.480; RWIGS  =    1.312    wigner-seitz radius (au A)           
   ENMAX  =  273.214; ENMIN  =  204.910 eV                                      
   RCLOC  =    1.712    cutoff for local pot                                    
   LCOR   =        T    correct aug charges                                     
   LPAW   =        T    paw PP                                                  
   EAUG   =  516.456                                                            
   DEXC   =    -.008                                                            
   RMAX   =    2.789    core radius for proj-oper                               
   RAUG   =    1.300    factor for augmentation sphere                          
   RDEP   =    2.302    radius for radial grids                                 
   QCUT   =   -4.481; QGAM   =    8.962    optimization parameters              
                                                                                
   Description                                                                  
     l     E      TYP  RCUT    TYP  RCUT                                        
     2   .000     23  2.300                                                     
     2   .000     23  2.300                                                     
     0   .000     23  2.300                                                     
     0   .000     23  2.300                                                     
     1  -.200     23  2.300                                                     
     1   .000     23  2.300                                                     
     3   .000      7   .000                                                     
  local pseudopotential read in
  partial core-charges read in
  atomic valenz-charges read in
  non local Contribution for L=           2  read in
    real space projection operators read in
  non local Contribution for L=           2  read in
    real space projection operators read in
  non local Contribution for L=           0  read in
    real space projection operators read in
  non local Contribution for L=           0  read in
    real space projection operators read in
  non local Contribution for L=           1  read in
    real space projection operators read in
  non local Contribution for L=           1  read in
    real space projection operators read in
    PAW grid and wavefunctions read in
 
   number of l-projection  operators is LMAX  =           6
   number of lm-projection operators is LMMAX =          18
 

 ----------------------------------------------------------------------------- 
|                                                                             |
|  ADVICE TO THIS USER RUNNING 'VASP/VAMP'   (HEAR YOUR MASTER'S VOICE ...):  |
|                                                                             |
|      You have a (more or less) 'large supercell' and for larger cells       |
|      it might be more efficient to use real space projection operators      |
|      So try LREAL= Auto  in the INCAR   file.                               |
|      Mind: If you want to do a very accurate calculations keep the          |
|      reciprocal projection scheme          (i.e. LREAL=.FALSE.)             |
|                                                                             |
 ----------------------------------------------------------------------------- 

 PAW_PBE Al 04Jan2001                   :
 energy of atom  1       EATOM=  -53.5387
 kinetic energy error for atom=    0.0011 (will be added to EATOM!!)
 PAW_PBE Cu 05Jan2001                   :
 energy of atom  2       EATOM=-1390.9800
 kinetic energy error for atom=    0.0323 (will be added to EATOM!!)
 
 
 POSCAR: Al30 Cu1                                
  positions in direct lattice
  velocities in cartesian coordinates
 exchange correlation table for  LEXCH =        8
   RHO(1)=    0.500       N(1)  =     2000
   RHO(2)=  100.500       N(2)  =     4000

 VTST: version 2.03d, (02/18/09)

 CHAIN: initializing optimizer
 
 OPT: Using VASP Conjugate-Gradient optimizer
 CHAIN: Read ICHAIN            0
 


--------------------------------------------------------------------------------------------------------


 ion  position               nearest neighbor table
   1  0.999  0.992  0.996-  26 2.75  14 2.77  10 2.80  20 2.80  17 2.80  11 2.81   2 2.86  18 2.86
                             6 2.87   7 2.88   3 2.90   4 2.91
   2  0.248  0.999  0.246-   3 2.82   4 2.84   5 2.85  10 2.85   1 2.86  11 2.86  15 2.87  31 2.87
                            25 2.88  16 2.91  19 2.92
   3  0.248  0.250  0.003-   4 2.80   2 2.82   9 2.82  31 2.85  18 2.87   5 2.88  12 2.88  24 2.88
                            17 2.88   1 2.90   8 2.90  22 2.91
   4  0.002  0.250  0.247-   3 2.80   2 2.84   9 2.84   7 2.85   6 2.88  13 2.88   1 2.91   8 2.91
                            21 2.91  16 2.92  23 2.92
   5  0.502  1.000  0.001-   6 2.83  15 2.85   2 2.85  30 2.85  31 2.86  17 2.87  20 2.87  22 2.88
                             7 2.88   3 2.88  10 2.89  14 2.89
   6  0.749  1.000  0.248-   5 2.83  15 2.85  19 2.85  11 2.85  31 2.86  16 2.87   1 2.87   4 2.88
                             7 2.88  21 2.88  29 2.89  14 2.89
   7  0.754  0.250  0.996-  18 2.76   4 2.85  22 2.85  12 2.88  13 2.88   5 2.88   6 2.88   1 2.88
                            20 2.88   8 2.88  28 2.88  31 2.92
   8  0.999  0.508  0.996-  26 2.75  14 2.77  10 2.80  28 2.80  24 2.80  11 2.81   9 2.86  18 2.86
                            13 2.87   7 2.88   3 2.90   4 2.91
   9  0.248  0.501  0.246-   3 2.82   4 2.84  12 2.85  10 2.85   8 2.86  11 2.86  15 2.87  31 2.87
                            25 2.88  23 2.91  27 2.92
  10  0.247  0.750  0.996-  17 2.80  24 2.80   1 2.80   8 2.80  26 2.82  11 2.85   2 2.85   9 2.85
                            30 2.87   5 2.89  12 2.89  15 2.90
  11  0.998  0.750  0.246-   1 2.81   8 2.81  14 2.82  13 2.85   6 2.85  10 2.85   9 2.86   2 2.86
                            29 2.87  23 2.88  16 2.88  25 2.89
  12  0.502  0.500  0.001-  13 2.83  15 2.85   9 2.85  30 2.85  31 2.86  24 2.87  28 2.87  22 2.88
                             7 2.88   3 2.88  10 2.89  14 2.89
  13  0.749  0.500  0.248-  12 2.83  15 2.85  27 2.85  11 2.85  31 2.86  23 2.87   8 2.87   4 2.88
                             7 2.88  21 2.88  29 2.89  14 2.89
  14  0.757  0.750  0.993-  26 2.70   8 2.77   1 2.77  20 2.77  28 2.77  11 2.82  30 2.82   5 2.89
                             6 2.89  12 2.89  13 2.89  15 2.93
  15  0.501  0.750  0.249-   5 2.85   6 2.85  12 2.85  13 2.85   2 2.87   9 2.87  19 2.87  27 2.87
                            25 2.87  10 2.90  29 2.90  14 2.93
  16  0.997  0.996  0.503-  29 2.80  20 2.80  25 2.85  26 2.85  17 2.86   6 2.87  11 2.88  21 2.88
                            18 2.89   2 2.91   4 2.92
  17  0.247  0.996  0.753-  10 2.80   1 2.80  25 2.85  26 2.85  16 2.86   5 2.87  30 2.88   3 2.88
                            18 2.89  19 2.91  22 2.92
  18  0.996  0.250  0.754-   7 2.76  20 2.86  28 2.86   1 2.86   8 2.86  21 2.87   3 2.87  24 2.89
                            17 2.89  16 2.89  23 2.89
  19  0.504  0.999  0.502-  21 2.82  22 2.84   6 2.85  29 2.85  20 2.86  30 2.86  15 2.87  31 2.87
                            25 2.88  17 2.91   2 2.92
  20  0.754  0.992  0.751-  26 2.75  14 2.77  29 2.80   1 2.80  16 2.80  30 2.81  19 2.86  18 2.86
                             5 2.87   7 2.88  21 2.90  22 2.91
  21  0.747  0.250  0.502-  22 2.80  19 2.82  27 2.82  31 2.85  18 2.87  13 2.88   6 2.88  16 2.88
                            23 2.88  28 2.90  20 2.90   4 2.91
  22  0.503  0.250  0.748-  21 2.80  19 2.84  27 2.84   7 2.85  12 2.88   5 2.88  20 2.91  28 2.91
                             3 2.91  17 2.92  24 2.92
  23  0.997  0.504  0.503-  29 2.80  28 2.80  25 2.85  26 2.85  24 2.86  13 2.87  11 2.88  21 2.88
                            18 2.89   9 2.91   4 2.92
  24  0.247  0.504  0.753-  10 2.80   8 2.80  25 2.85  26 2.85  23 2.86  12 2.87  30 2.88   3 2.88
                            18 2.89  27 2.91  22 2.92
  25  0.250  0.750  0.500-  16 2.85  17 2.85  23 2.85  24 2.85  15 2.87  19 2.88   9 2.88   2 2.88
                            27 2.88  11 2.89  30 2.89  26 2.93
  26  0.994  0.750  0.756-  14 2.70   8 2.75   1 2.75  20 2.75  28 2.75  10 2.82  29 2.82  23 2.85
                            24 2.85  17 2.85  16 2.85  25 2.93
  27  0.504  0.501  0.502-  21 2.82  22 2.84  13 2.85  29 2.85  28 2.86  30 2.86  15 2.87  31 2.87
                            25 2.88  24 2.91   9 2.92
  28  0.754  0.508  0.751-  26 2.75  14 2.77  29 2.80   8 2.80  23 2.80  30 2.81  27 2.86  18 2.86
                            12 2.87   7 2.88  21 2.90  22 2.91
  29  0.754  0.750  0.503-  16 2.80  23 2.80  20 2.80  28 2.80  26 2.82  30 2.85  19 2.85  27 2.85
                            11 2.87   6 2.89  13 2.89  15 2.90
  30  0.504  0.750  0.752-  20 2.81  28 2.81  14 2.82  12 2.85   5 2.85  29 2.85  19 2.86  27 2.86
                            10 2.87  24 2.88  17 2.88  25 2.89
  31  0.499  0.250  0.251-   3 2.85  21 2.85   6 2.86  12 2.86  13 2.86   5 2.86  19 2.87  27 2.87
                             9 2.87   2 2.87   7 2.92
 
  LATTYP: Found a simple cubic cell.
 ALAT       =     8.0870400000
  
  Lattice vectors:
  
 A1 = (   8.0870400000,   0.0000000000,   0.0000000000)
 A2 = (   0.0000000000,   8.0870400000,   0.0000000000)
 A3 = (   0.0000000000,   0.0000000000,   8.0870400000)
 Subroutine PRICEL returns:
 Original cell was already a primitive cell.
 

Analysis of symmetry for initial positions (statically):

 Routine SETGRP: Setting up the symmetry group for a 
 simple cubic supercell.


 Subroutine GETGRP returns: Found  4 space group operations
 (whereof  1 operations were pure point group operations)
 out of a pool of 48 trial point group operations.


The static configuration has the point symmetry C_1 .
 The point group associated with its full space group is C_2v.

Analysis of symmetry for dynamics (positions and initial velocities):

 Subroutine DYNSYM returns: Found  4 space group operations
 (whereof  1 operations were pure point group operations)
 out of a pool of  4 trial space group operations
 (whereof  1 operations were pure point group operations)
 and found also     1 'primitive' translations


The dynamic configuration has the point symmetry C_1 .
 The point group associated with its full space group is C_2v.
 
 
 KPOINTS: Automatic kpoint scheme                 

Automatic generation of k-mesh.
 
 Subroutine IBZKPT returns following result:
 ===========================================
 
 Found      2 irreducible k-points:
 
 Following reciprocal coordinates:
            Coordinates               Weight
  0.250000  0.250000  0.250000      4.000000
 -0.250000  0.250000  0.250000      4.000000
 
 Following cartesian coordinates:
            Coordinates               Weight
  0.030914  0.030914  0.030914      4.000000
 -0.030914  0.030914  0.030914      4.000000
 


--------------------------------------------------------------------------------------------------------




 Dimension of arrays:
   k-points           NKPTS =      2   k-points in BZ     NKDIM =      2   number of bands    NBANDS=     72
   number of dos      NEDOS =    301   number of ions     NIONS =     31
   non local maximal  LDIM  =      6   non local SUM 2l+1 LMDIM =     18
   total plane-waves  NPLWV = 110592
   max r-space proj   IRMAX =      1   max aug-charges    IRDMAX=   8337
   dimension x,y,z NGX =    48 NGY =   48 NGZ =   48
   dimension x,y,z NGXF=    96 NGYF=   96 NGZF=   96
   support grid    NGXF=    96 NGYF=   96 NGZF=   96
   ions per type =              30   1
 NGX,Y,Z   is equivalent  to a cutoff of   9.87,  9.87,  9.87 a.u.
 NGXF,Y,Z  is equivalent  to a cutoff of  19.73, 19.73, 19.73 a.u.


 I would recommend the setting:
   dimension x,y,z NGX =    46 NGY =   46 NGZ =   46
 SYSTEM =  unknown system                          
 POSCAR =  Al30 Cu1                                

 Startparameter for this run:
   NWRITE =      2    write-flag & timer
   PREC   = accura    medium, high low
   ISTART =      0    job   : 0-new  1-cont  2-samecut
   ICHARG =      2    charge: 1-file 2-atom 10-const
   ISPIN  =      1    spin polarized calculation?
   LNONCOLLINEAR =      F non collinear calculations
   LSORBIT =      F    spin-orbit coupling
   INIWAV =      1    electr: 0-lowe 1-rand  2-diag
   LASPH  =      F    aspherical Exc in radial PAW
   METAGGA=      F    non-selfconsistent MetaGGA calc.

 Electronic Relaxation 1
   ENCUT  =  300.0 eV  22.05 Ry    4.70 a.u.  11.42 11.42 11.42*2*pi/ulx,y,z
   ENINI  =  300.0     initial cutoff
   ENAUG  =  516.5 eV  augmentation charge cutoff
   NELM   =     60;   NELMIN=  2; NELMDL=-12     # of ELM steps 
   EDIFF  = 0.1E-03   stopping-criterion for ELM
   LREAL  =      F    real-space projection
   LCOMPAT=      F    compatible to vasp.4.4
   LREAL_COMPAT= F    compatible to vasp.4.5.1-3
   GGA_COMPAT  = T    GGA compatible to vasp.4.4-vasp.4.6
   LMAXPAW     = -100 max onsite density
   LMAXMIX     =    2 max onsite mixed and CHGCAR
   VOSKOWN=      0    Vosko Wilk Nusair interpolation
   ROPT   =    0.00000   0.00000
 Ionic relaxation
   EDIFFG = 0.5E-01   stopping-criterion for IOM
   NSW    =    191    number of steps for IOM
   NBLOCK =      1;   KBLOCK =    191    inner block; outer block 
   IBRION =      2    ionic relax: 0-MD 1-quasi-New 2-CG
   NFREE  =      1    steps in history (QN), initial steepest desc. (CG)
   ISIF   =      2    stress and relaxation
   IWAVPR =     11    prediction:  0-non 1-charg 2-wave 3-comb
   ISYM   =      2    0-nonsym 1-usesym 2-fastsym
   LCORR  =      T    Harris-Foulkes like correction to forces

   POTIM  = 0.5000    time-step for ionic-motion
   TEIN   =    0.0    initial temperature
   TEBEG  =    0.0;   TEEND  =   0.0 temperature during run
   SMASS  =  -3.00    Nose mass-parameter (am)
   estimated Nose-frequenzy (Omega)   =  0.10E-29 period in steps =****** mass=  -0.149E-26a.u.
   NPACO  =    256;   APACO  = 16.0  distance and # of slots for P.C.
   PSTRESS=    0.0 pullay stress

  Mass of Ions in am
   POMASS =  26.98 63.55
  Ionic Valenz
   ZVAL   =   3.00 11.00
  Atomic Wigner-Seitz radii
   RWIGS  =  -1.00 -1.00
   NELECT =     101.0000    total number of electrons
   NUPDOWN=      -1.0000    fix difference up-down

 DOS related values:
   EMIN   =  10.00;   EMAX   =-10.00  energy-range for DOS
   EFERMI =   0.00
   ISMEAR =     1;   SIGMA  =   0.20  broadening in eV -4-tet -1-fermi 0-gaus

 Electronic relaxation 2 (details)
   IALGO  =     48    algorithm
   LDIAG  =      T    sub-space diagonalisation
   IMIX   =      4    mixing-type and parameters
     AMIX     =   0.40;   BMIX     =  1.00
     AMIX_MAG =   1.60;   BMIX_MAG =  1.00
     AMIN     =   0.10
     WC   =   100.;   INIMIX=   1;  MIXPRE=   1

 Intra band minimization:
   WEIMIN = 0.0010     energy-eigenvalue tresh-hold
   EBREAK =  0.38E-06  absolut break condition
   DEPER  =   0.30     relativ break condition  

   TIME   =   0.40     timestep for ELM

  volume/ion in A,a.u.               =      17.06       115.13
  Fermi-wavevector in a.u.,A,eV,Ry     =   0.942741  1.781522 12.092320  0.888760
  Thomas-Fermi vector in A             =   2.070380
 
 Write flags
   LWAVE  =      F    write WAVECAR
   LCHARG =      F    write CHGCAR
   LVTOT  =      F    write LOCPOT, local potential
   LELF   =      F    write electronic localiz. function (ELF)
   LORBIT =      0    0 simple, 1 ext, 2 COOP (PROOUT)


 Dipole corrections
   LMONO  =      F    monopole corrections only (constant potential shift)
   LDIPOL =      F    correct potential (dipole corrections)
   IDIPOL =      0    1-x, 2-y, 3-z, 4-all directions 
   EPSILON=  1.0000000 bulk dielectric constant

 Exchange correlation treatment:
   GGA     =    --    GGA type
   LEXCH   =     8    internal setting for exchange type
   VOSKOWN=      0    Vosko Wilk Nusair interpolation
   LHFCALC =     F    Hartree Fock is set to
   LHFONE  =     F    Hartree Fock one center treatment
   AEXX    =    0.0000 exact exchange contribution

 Linear response parameters
   LEPSILON=     F    determine dielectric tensor
   LRPA    =     F    only Hartree local field effects (RPA)
   LNABLA  =     F    use nabla operator in PAW spheres
   LVEL    =     F    velocity operator in full k-point grid
   LINTERFAST=   F  fast interpolation
   KINTER  =     0    interpolate to denser k-point grid
   CSHIFT  =0.1000    complex shift for real part using Kramers Kronig
   OMEGAMAX=  -1.0    maximum frequency

 Orbital magnetization related:
   ORBITALMAG=     F  switch on orbital magnetization
   LCHIMAG   =     F  perturbation theory with respect to B field



--------------------------------------------------------------------------------------------------------


 conjugate gradient relaxation of ions
 charge density and potential will be updated during run
 non-spin polarized calculation
 RMM-DIIS sequential band-by-band
 perform sub-space diagonalisation
    before iterative eigenvector-optimisation
 modified Broyden-mixing scheme, WC =      100.0
 initial mixing is a Kerker type mixing with AMIX =  0.4000 and BMIX =      1.0000
 Hartree-type preconditioning will be used
 using additional bands           21
 reciprocal scheme for non local part
 use partial core corrections
 calculate Harris-corrections to forces 
   (improved forces if not selfconsistent)
 use gradient corrections 
 use of overlap-Matrix (Vanderbilt PP)
 Methfessel and Paxton  Order N= 1 SIGMA  =   0.20


--------------------------------------------------------------------------------------------------------


  energy-cutoff  :      300.00
  volume of cell :      528.89
      direct lattice vectors                 reciprocal lattice vectors
     8.087040000  0.000000000  0.000000000     0.123654638  0.000000000  0.000000000
     0.000000000  8.087040000  0.000000000     0.000000000  0.123654638  0.000000000
     0.000000000  0.000000000  8.087040000     0.000000000  0.000000000  0.123654638

  length of vectors
     8.087040000  8.087040000  8.087040000     0.123654638  0.123654638  0.123654638


 
 k-points in units of 2pi/SCALE and weight: Automatic kpoint scheme                 
   0.03091366  0.03091366  0.03091366       0.500
  -0.03091366  0.03091366  0.03091366       0.500
 
 k-points in reciprocal lattice and weights: Automatic kpoint scheme                 
   0.25000000  0.25000000  0.25000000       0.500
  -0.25000000  0.25000000  0.25000000       0.500
 
 position of ions in fractional coordinates (direct lattice) 
   0.99896500  0.99181300  0.99593700
   0.24814800  0.99933800  0.24617400
   0.24823300  0.25000000  0.00296200
   0.00153600  0.25000000  0.24666100
   0.50153800  0.99987100  0.00111100
   0.74888900  0.99987100  0.24846200
   0.75430600  0.25000000  0.99569400
   0.99896500  0.50818700  0.99593700
   0.24814800  0.50066200  0.24617400
   0.24679100  0.75000000  0.99645600
   0.99767000  0.75000000  0.24616400
   0.50153800  0.50012900  0.00111100
   0.74888900  0.50012900  0.24846200
   0.75710700  0.75000000  0.99289300
   0.50054300  0.75000000  0.24945700
   0.99664400  0.99578100  0.50325700
   0.24674300  0.99578100  0.75335600
   0.99605500  0.25000000  0.75394500
   0.50382600  0.99933800  0.50185200
   0.75406300  0.99181300  0.75103500
   0.74703800  0.25000000  0.50176700
   0.50333900  0.25000000  0.74846400
   0.99664400  0.50421900  0.50325700
   0.24674300  0.50421900  0.75335600
   0.24952100  0.75000000  0.50047900
   0.99359200  0.75000000  0.75640800
   0.50382600  0.50066200  0.50185200
   0.75406300  0.50818700  0.75103500
   0.75354400  0.75000000  0.50320900
   0.50383600  0.75000000  0.75233000
   0.49925900  0.25000000  0.25074100
 
 position of ions in cartesian coordinates  (Angst):
   8.07866991  8.02083140  8.05418236
   2.00678280  8.08168638  1.99081898
   2.00747020  2.02176000  0.02395381
   0.01242169  2.02176000  1.99475737
   4.05595787  8.08599677  0.00898470
   6.05629530  8.08599677  2.00932213
   6.10010279  2.02176000  8.05221721
   8.07866991  4.10972860  8.05418236
   2.00678280  4.04887362  1.99081898
   1.99580869  6.06528000  8.05837953
   8.06819720  6.06528000  1.99073811
   4.05595787  4.04456323  0.00898470
   6.05629530  4.04456323  2.00932213
   6.12275459  6.06528000  8.02956541
   4.04791126  6.06528000  2.01736874
   8.05989989  8.05292078  4.06985949
   1.99542051  8.05292078  6.09242011
   8.05513663  2.02176000  6.09718337
   4.07446102  8.08168638  4.05849720
   6.09813764  8.02083140  6.07365009
   6.04132619  2.02176000  4.05780980
   4.07052263  2.02176000  6.05285831
   8.05989989  4.07763922  4.06985949
   1.99542051  4.07763922  6.09242011
   2.01788631  6.06528000  4.04739369
   8.03521825  6.06528000  6.11710175
   4.07446102  4.04887362  4.05849720
   6.09813764  4.10972860  6.07365009
   6.09394047  6.06528000  4.06947131
   4.07454189  6.06528000  6.08412280
   4.03752750  2.02176000  2.02775250
 


--------------------------------------------------------------------------------------------------------


 k-point  1 :  0.25000.25000.2500  plane waves:    6238
 k-point  2 :  -.25000.25000.2500  plane waves:    6238

 maximum and minimum number of plane-waves per node :    6238   6238

 maximum number of plane-waves:    6238
 maximal index in each direction: 
   IXMAX= 11   IYMAX= 11   IZMAX= 11
   IXMIN=-11   IYMIN=-11   IZMIN=-11

 NGX is ok and might be reduce to  46
 NGY is ok and might be reduce to  46
 NGZ is ok and might be reduce to  46

 serial   3D FFT for wavefunctions
 parallel 3D FFT for charge:
    minimum data exchange during FFTs selected (reduces bandwidth)


 total amount of memory used by VASP on root node  63028. kBytes
========================================================================

   base      :    30000. kBytes
   nonl-proj :     6689. kBytes
   fftplans  :     2983. kBytes
   grid      :    21626. kBytes
   one-center:      482. kBytes
   wavefun   :     1248. kBytes
 
 Broyden mixing: mesh for mixing (old mesh)
   NGX = 23   NGY = 23   NGZ = 23
  (NGX  = 96   NGY  = 96   NGZ  = 96)
  gives a total of  12167 points

 initial charge density was supplied:
 charge density of overlapping atoms calculated
 number of electron  101.0000000 magnetization 
 keeping initial charge density in first step


--------------------------------------------------------------------------------------------------------


 Maximum index for augmentation-charges          553 (set IRDMAX)


--------------------------------------------------------------------------------------------------------


 First call to EWALD:  gamma=   0.219
 Maximum number of real-space cells 3x 3x 3
 Maximum number of reciprocal cells 3x 3x 3

    FEWALD:  cpu time    0.01: real time    0.01
   RESPFUN:  cpu time    0.00: real time    0.00


----------------------------------------- Iteration    1(   1)  ---------------------------------------


    POTLOK:  cpu time    0.15: real time    0.15
    SETDIJ:  cpu time    0.02: real time    0.02
    EDDIAG:  cpu time    0.30: real time    0.30
  RMM-DIIS:  cpu time    0.70: real time    0.70
    ORTHCH:  cpu time    0.02: real time    0.02
       DOS:  cpu time    0.00: real time    0.00
    --------------------------------------------
      LOOP:  cpu time    1.19: real time    1.19

 eigenvalue-minimisations  :   144
 total energy-change (2. order) : 0.2985478E+03  (-0.1822822E+04)
 number of electron  101.0000000 magnetization 
 augmentation part   101.0000000 magnetization 

 Free energy of the ion-electron system (eV)
  ---------------------------------------------------
  alpha Z        PSCENC =        15.76595319
  Ewald energy   TEWEN  =     -2790.52372845
  -1/2 Hartree   DENC   =      -758.95539279
  -exchange  EXHF       =         0.00000000
  -V(xc)+E(xc)   XCENC  =      -745.12303151
  PAW double counting   =      2148.67993976    -1334.04649801
  entropy T*S    EENTRO =         0.02120695
  eigenvalues    EBANDS =       765.65290390
  atomic energy  EATOM  =      2997.07640482
  ---------------------------------------------------
  free energy    TOTEN  =       298.54775787 eV

  energy without entropy =      298.52655092  energy(sigma->0) =      298.54068888


--------------------------------------------------------------------------------------------------------




----------------------------------------- Iteration    1(   2)  ---------------------------------------


    EDDIAG:  cpu time    0.30: real time    0.30
  RMM-DIIS:  cpu time    0.70: real time    0.70
    ORTHCH:  cpu time    0.02: real time    0.02
       DOS:  cpu time    0.00: real time    0.00
    --------------------------------------------
      LOOP:  cpu time    1.02: real time    1.03

 eigenvalue-minimisations  :   144
 total energy-change (2. order) :-0.3275284E+03  (-0.3196037E+03)
 number of electron  101.0000000 magnetization 
 augmentation part   101.0000000 magnetization 

 Free energy of the ion-electron system (eV)
  ---------------------------------------------------
  alpha Z        PSCENC =        15.76595319
  Ewald energy   TEWEN  =     -2790.52372845
  -1/2 Hartree   DENC   =      -758.95539279
  -exchange  EXHF       =         0.00000000
  -V(xc)+E(xc)   XCENC  =      -745.12303151
  PAW double counting   =      2148.67993976    -1334.04649801
  entropy T*S    EENTRO =         0.00542191
  eigenvalues    EBANDS =       438.14028241
  atomic energy  EATOM  =      2997.07640482
  ---------------------------------------------------
  free energy    TOTEN  =       -28.98064866 eV

  energy without entropy =      -28.98607057  energy(sigma->0) =      -28.98245596


--------------------------------------------------------------------------------------------------------




----------------------------------------- Iteration    1(   3)  ---------------------------------------


    EDDIAG:  cpu time    0.30: real time    0.30
  RMM-DIIS:  cpu time    0.70: real time    0.70
    ORTHCH:  cpu time    0.02: real time    0.02
       DOS:  cpu time    0.00: real time    0.00
    --------------------------------------------
      LOOP:  cpu time    1.02: real time    1.02

 eigenvalue-minimisations  :   144
 total energy-change (2. order) :-0.6262981E+02  (-0.6277107E+02)
 number of electron  101.0000000 magnetization 
 augmentation part   101.0000000 magnetization 

 Free energy of the ion-electron system (eV)
  ---------------------------------------------------
  alpha Z        PSCENC =        15.76595319
  Ewald energy   TEWEN  =     -2790.52372845
  -1/2 Hartree   DENC   =      -758.95539279
  -exchange  EXHF       =         0.00000000
  -V(xc)+E(xc)   XCENC  =      -745.12303151
  PAW double counting   =      2148.67993976    -1334.04649801
  entropy T*S    EENTRO =        -0.01513270
  eigenvalues    EBANDS =       375.53102381
  atomic energy  EATOM  =      2997.07640482
  ---------------------------------------------------
  free energy    TOTEN  =       -91.61046186 eV

  energy without entropy =      -91.59532916  energy(sigma->0) =      -91.60541763


--------------------------------------------------------------------------------------------------------




----------------------------------------- Iteration    1(   4)  ---------------------------------------


    EDDIAG:  cpu time    0.30: real time    0.30
  RMM-DIIS:  cpu time    0.70: real time    0.70
    ORTHCH:  cpu time    0.02: real time    0.02
       DOS:  cpu time    0.00: real time    0.00
    --------------------------------------------
      LOOP:  cpu time    1.02: real time    1.02

 eigenvalue-minimisations  :   144
 total energy-change (2. order) :-0.1451346E+02  (-0.1350611E+02)
 number of electron  101.0000000 magnetization 
 augmentation part   101.0000000 magnetization 

 Free energy of the ion-electron system (eV)
  ---------------------------------------------------
  alpha Z        PSCENC =        15.76595319
  Ewald energy   TEWEN  =     -2790.52372845
  -1/2 Hartree   DENC   =      -758.95539279
  -exchange  EXHF       =         0.00000000
  -V(xc)+E(xc)   XCENC  =      -745.12303151
  PAW double counting   =      2148.67993976    -1334.04649801
  entropy T*S    EENTRO =        -0.02289847
  eigenvalues    EBANDS =       361.02533230
  atomic energy  EATOM  =      2997.07640482
  ---------------------------------------------------
  free energy    TOTEN  =      -106.12391915 eV

  energy without entropy =     -106.10102068  energy(sigma->0) =     -106.11628633


--------------------------------------------------------------------------------------------------------




----------------------------------------- Iteration    1(   5)  ---------------------------------------


    EDDIAG:  cpu time    0.30: real time    0.30
  RMM-DIIS:  cpu time    0.70: real time    0.70
    ORTHCH:  cpu time    0.02: real time    0.02
       DOS:  cpu time    0.00: real time    0.00
    --------------------------------------------
      LOOP:  cpu time    1.02: real time    1.02

 eigenvalue-minimisations  :   144
 total energy-change (2. order) :-0.7227070E+01  (-0.5970856E+01)
 number of electron  101.0000000 magnetization 
 augmentation part   101.0000000 magnetization 

 Free energy of the ion-electron system (eV)
  ---------------------------------------------------
  alpha Z        PSCENC =        15.76595319
  Ewald energy   TEWEN  =     -2790.52372845
  -1/2 Hartree   DENC   =      -758.95539279
  -exchange  EXHF       =         0.00000000
  -V(xc)+E(xc)   XCENC  =      -745.12303151
  PAW double counting   =      2148.67993976    -1334.04649801
  entropy T*S    EENTRO =        -0.03077562
  eigenvalues    EBANDS =       353.80613910
  atomic energy  EATOM  =      2997.07640482
  ---------------------------------------------------
  free energy    TOTEN  =      -113.35098950 eV

  energy without entropy =     -113.32021387  energy(sigma->0) =     -113.34073096


--------------------------------------------------------------------------------------------------------




----------------------------------------- Iteration    1(   6)  ---------------------------------------


    EDDIAG:  cpu time    0.30: real time    0.30
  RMM-DIIS:  cpu time    0.69: real time    0.69
    ORTHCH:  cpu time    0.02: real time    0.02
       DOS:  cpu time    0.00: real time    0.00
    --------------------------------------------
      LOOP:  cpu time    1.01: real time    1.01

 eigenvalue-minimisations  :   144
 total energy-change (2. order) :-0.3200131E+01  (-0.2583799E+01)
 number of electron  101.0000000 magnetization 
 augmentation part   101.0000000 magnetization 

 Free energy of the ion-electron system (eV)
  ---------------------------------------------------
  alpha Z        PSCENC =        15.76595319
  Ewald energy   TEWEN  =     -2790.52372845
  -1/2 Hartree   DENC   =      -758.95539279
  -exchange  EXHF       =         0.00000000
  -V(xc)+E(xc)   XCENC  =      -745.12303151
  PAW double counting   =      2148.67993976    -1334.04649801
  entropy T*S    EENTRO =        -0.00820234
  eigenvalues    EBANDS =       350.58343516
  atomic energy  EATOM  =      2997.07640482
  ---------------------------------------------------
  free energy    TOTEN  =      -116.55112016 eV

  energy without entropy =     -116.54291782  energy(sigma->0) =     -116.54838605


--------------------------------------------------------------------------------------------------------




----------------------------------------- Iteration    1(   7)  ---------------------------------------


    EDDIAG:  cpu time    0.30: real time    0.30
  RMM-DIIS:  cpu time    0.69: real time    0.69
    ORTHCH:  cpu time    0.02: real time    0.02
       DOS:  cpu time    0.00: real time    0.00
    --------------------------------------------
      LOOP:  cpu time    1.01: real time    1.01

 eigenvalue-minimisations  :   144
 total energy-change (2. order) :-0.1499027E+01  (-0.1313345E+01)
 number of electron  101.0000000 magnetization 
 augmentation part   101.0000000 magnetization 

 Free energy of the ion-electron system (eV)
  ---------------------------------------------------
  alpha Z        PSCENC =        15.76595319
  Ewald energy   TEWEN  =     -2790.52372845
  -1/2 Hartree   DENC   =      -758.95539279
  -exchange  EXHF       =         0.00000000
  -V(xc)+E(xc)   XCENC  =      -745.12303151
  PAW double counting   =      2148.67993976    -1334.04649801
  entropy T*S    EENTRO =         0.01927789
  eigenvalues    EBANDS =       349.05692823
  atomic energy  EATOM  =      2997.07640482
  ---------------------------------------------------
  free energy    TOTEN  =      -118.05014685 eV

  energy without entropy =     -118.06942474  energy(sigma->0) =     -118.05657282


--------------------------------------------------------------------------------------------------------




----------------------------------------- Iteration    1(   8)  ---------------------------------------


    EDDIAG:  cpu time    0.30: real time    0.30
  RMM-DIIS:  cpu time    0.69: real time    0.69
    ORTHCH:  cpu time    0.02: real time    0.02
       DOS:  cpu time    0.00: real time    0.00
    --------------------------------------------
      LOOP:  cpu time    1.01: real time    1.01

 eigenvalue-minimisations  :   144
 total energy-change (2. order) :-0.7815735E+00  (-0.6658893E+00)
 number of electron  101.0000000 magnetization 
 augmentation part   101.0000000 magnetization 

 Free energy of the ion-electron system (eV)
  ---------------------------------------------------
  alpha Z        PSCENC =        15.76595319
  Ewald energy   TEWEN  =     -2790.52372845
  -1/2 Hartree   DENC   =      -758.95539279
  -exchange  EXHF       =         0.00000000
  -V(xc)+E(xc)   XCENC  =      -745.12303151
  PAW double counting   =      2148.67993976    -1334.04649801
  entropy T*S    EENTRO =         0.02735578
  eigenvalues    EBANDS =       348.26727688
  atomic energy  EATOM  =      2997.07640482
  ---------------------------------------------------
  free energy    TOTEN  =      -118.83172032 eV

  energy without entropy =     -118.85907610  energy(sigma->0) =     -118.84083892


--------------------------------------------------------------------------------------------------------




----------------------------------------- Iteration    1(   9)  ---------------------------------------


    EDDIAG:  cpu time    0.30: real time    0.30
  RMM-DIIS:  cpu time    1.67: real time    1.67
    ORTHCH:  cpu time    0.02: real time    0.02
       DOS:  cpu time    0.00: real time    0.00
    --------------------------------------------
      LOOP:  cpu time    1.99: real time    1.99

 eigenvalue-minimisations  :   389
 total energy-change (2. order) :-0.8073060E+00  (-0.7678795E+00)
 number of electron  101.0000000 magnetization 
 augmentation part   101.0000000 magnetization 

 Free energy of the ion-electron system (eV)
  ---------------------------------------------------
  alpha Z        PSCENC =        15.76595319
  Ewald energy   TEWEN  =     -2790.52372845
  -1/2 Hartree   DENC   =      -758.95539279
  -exchange  EXHF       =         0.00000000
  -V(xc)+E(xc)   XCENC  =      -745.12303151
  PAW double counting   =      2148.67993976    -1334.04649801
  entropy T*S    EENTRO =         0.03383251
  eigenvalues    EBANDS =       347.45349415
  atomic energy  EATOM  =      2997.07640482
  ---------------------------------------------------
  free energy    TOTEN  =      -119.63902632 eV

  energy without entropy =     -119.67285883  energy(sigma->0) =     -119.65030382


--------------------------------------------------------------------------------------------------------




----------------------------------------- Iteration    1(  10)  ---------------------------------------


    EDDIAG:  cpu time    0.30: real time    0.30
  RMM-DIIS:  cpu time    1.36: real time    1.36
    ORTHCH:  cpu time    0.02: real time    0.02
       DOS:  cpu time    0.00: real time    0.00
    --------------------------------------------
      LOOP:  cpu time    1.68: real time    1.68

 eigenvalue-minimisations  :   320
 total energy-change (2. order) :-0.7723237E-01  (-0.3172346E-01)
 number of electron  101.0000000 magnetization 
 augmentation part   101.0000000 magnetization 

 Free energy of the ion-electron system (eV)
  ---------------------------------------------------
  alpha Z        PSCENC =        15.76595319
  Ewald energy   TEWEN  =     -2790.52372845
  -1/2 Hartree   DENC   =      -758.95539279
  -exchange  EXHF       =         0.00000000
  -V(xc)+E(xc)   XCENC  =      -745.12303151
  PAW double counting   =      2148.67993976    -1334.04649801
  entropy T*S    EENTRO =         0.02915252
  eigenvalues    EBANDS =       347.38094177
  atomic energy  EATOM  =      2997.07640482
  ---------------------------------------------------
  free energy    TOTEN  =      -119.71625869 eV

  energy without entropy =     -119.74541121  energy(sigma->0) =     -119.72597619


--------------------------------------------------------------------------------------------------------




----------------------------------------- Iteration    1(  11)  ---------------------------------------


    EDDIAG:  cpu time    0.30: real time    0.30
  RMM-DIIS:  cpu time    1.12: real time    1.12
    ORTHCH:  cpu time    0.02: real time    0.02
       DOS:  cpu time    0.00: real time    0.00
    --------------------------------------------
      LOOP:  cpu time    1.44: real time    1.44

 eigenvalue-minimisations  :   250
 total energy-change (2. order) :-0.4210905E-02  (-0.1389291E-02)
 number of electron  101.0000000 magnetization 
 augmentation part   101.0000000 magnetization 

 Free energy of the ion-electron system (eV)
  ---------------------------------------------------
  alpha Z        PSCENC =        15.76595319
  Ewald energy   TEWEN  =     -2790.52372845
  -1/2 Hartree   DENC   =      -758.95539279
  -exchange  EXHF       =         0.00000000
  -V(xc)+E(xc)   XCENC  =      -745.12303151
  PAW double counting   =      2148.67993976    -1334.04649801
  entropy T*S    EENTRO =         0.02888113
  eigenvalues    EBANDS =       347.37700225
  atomic energy  EATOM  =      2997.07640482
  ---------------------------------------------------
  free energy    TOTEN  =      -119.72046959 eV

  energy without entropy =     -119.74935073  energy(sigma->0) =     -119.73009664


--------------------------------------------------------------------------------------------------------




----------------------------------------- Iteration    1(  12)  ---------------------------------------


    EDDIAG:  cpu time    0.30: real time    0.30
  RMM-DIIS:  cpu time    0.99: real time    0.99
    ORTHCH:  cpu time    0.02: real time    0.02
       DOS:  cpu time    0.00: real time    0.00
    CHARGE:  cpu time    0.20: real time    0.20
    MIXING:  cpu time    0.00: real time    0.00
    --------------------------------------------
      LOOP:  cpu time    1.51: real time    1.51

 eigenvalue-minimisations  :   214
 total energy-change (2. order) :-0.9922305E-04  (-0.4604392E-04)
 number of electron  100.9999967 magnetization 
 augmentation part     3.2629293 magnetization 

 Broyden mixing:
  rms(total) = 0.29895E+01    rms(broyden)= 0.29894E+01
  rms(prec ) = 0.51172E+01
  weight for this iteration     100.00

 Free energy of the ion-electron system (eV)
  ---------------------------------------------------
  alpha Z        PSCENC =        15.76595319
  Ewald energy   TEWEN  =     -2790.52372845
  -1/2 Hartree   DENC   =      -758.95539279
  -exchange  EXHF       =         0.00000000
  -V(xc)+E(xc)   XCENC  =      -745.12303151
  PAW double counting   =      2148.67993976    -1334.04649801
  entropy T*S    EENTRO =         0.02910001
  eigenvalues    EBANDS =       347.37668415
  atomic energy  EATOM  =      2997.07640482
  ---------------------------------------------------
  free energy    TOTEN  =      -119.72056882 eV

  energy without entropy =     -119.74966882  energy(sigma->0) =     -119.73026882


--------------------------------------------------------------------------------------------------------




----------------------------------------- Iteration    1(  13)  ---------------------------------------


    POTLOK:  cpu time    0.15: real time    0.15
    SETDIJ:  cpu time    0.02: real time    0.02
    EDDIAG:  cpu time    0.30: real time    0.30
  RMM-DIIS:  cpu time    1.82: real time    1.82
    ORTHCH:  cpu time    0.02: real time    0.02
       DOS:  cpu time    0.00: real time    0.00
    CHARGE:  cpu time    0.20: real time    0.20
    MIXING:  cpu time    0.00: real time    0.00
    --------------------------------------------
      LOOP:  cpu time    2.52: real time    2.52

 eigenvalue-minimisations  :   414
 total energy-change (2. order) :-0.3666621E+02  (-0.4144393E+02)
 number of electron  100.9999938 magnetization 
 augmentation part     7.4860542 magnetization 

 Broyden mixing:
  rms(total) = 0.24176E+01    rms(broyden)= 0.24170E+01
  rms(prec ) = 0.41109E+01
  weight for this iteration     100.00

 eigenvalues of (default mixing * dielectric matrix)
  average eigenvalue GAMMA=   0.5540
  0.5540

 Free energy of the ion-electron system (eV)
  ---------------------------------------------------
  alpha Z        PSCENC =        15.76595319
  Ewald energy   TEWEN  =     -2790.52372845
  -1/2 Hartree   DENC   =      -592.31773306
  -exchange  EXHF       =         0.00000000
  -V(xc)+E(xc)   XCENC  =      -749.70062180
  PAW double counting   =      1867.08723176    -1010.13551688
  entropy T*S    EENTRO =        -0.02397270
  eigenvalues    EBANDS =       106.38520520
  atomic energy  EATOM  =      2997.07640482
  ---------------------------------------------------
  free energy    TOTEN  =      -156.38677791 eV

  energy without entropy =     -156.36280521  energy(sigma->0) =     -156.37878701


--------------------------------------------------------------------------------------------------------




----------------------------------------- Iteration    1(  14)  ---------------------------------------


    POTLOK:  cpu time    0.15: real time    0.15
    SETDIJ:  cpu time    0.01: real time    0.02
    EDDIAG:  cpu time    0.30: real time    0.30
  RMM-DIIS:  cpu time    1.23: real time    1.23
    ORTHCH:  cpu time    0.02: real time    0.02
       DOS:  cpu time    0.00: real time    0.00
    CHARGE:  cpu time    0.20: real time    0.20
    MIXING:  cpu time    0.00: real time    0.00
    --------------------------------------------
      LOOP:  cpu time    1.92: real time    1.92

 eigenvalue-minimisations  :   288
 total energy-change (2. order) : 0.3289207E+02  (-0.6684778E+01)
 number of electron  100.9999942 magnetization 
 augmentation part     7.0007715 magnetization 

 Broyden mixing:
  rms(total) = 0.13826E+01    rms(broyden)= 0.13826E+01
  rms(prec ) = 0.23215E+01
  weight for this iteration     100.00

 eigenvalues of (default mixing * dielectric matrix)
  average eigenvalue GAMMA=   0.9175
  0.9175  0.9175

 Free energy of the ion-electron system (eV)
  ---------------------------------------------------
  alpha Z        PSCENC =        15.76595319
  Ewald energy   TEWEN  =     -2790.52372845
  -1/2 Hartree   DENC   =      -663.81107594
  -exchange  EXHF       =         0.00000000
  -V(xc)+E(xc)   XCENC  =      -746.90064080
  PAW double counting   =      2007.09639119    -1181.65383011
  entropy T*S    EENTRO =        -0.02008831
  eigenvalues    EBANDS =       239.47590257
  atomic energy  EATOM  =      2997.07640482
  ---------------------------------------------------
  free energy    TOTEN  =      -123.49471184 eV

  energy without entropy =     -123.47462353  energy(sigma->0) =     -123.48801574


--------------------------------------------------------------------------------------------------------




----------------------------------------- Iteration    1(  15)  ---------------------------------------


    POTLOK:  cpu time    0.15: real time    0.15
    SETDIJ:  cpu time    0.02: real time    0.02
    EDDIAG:  cpu time    0.30: real time    0.30
  RMM-DIIS:  cpu time    1.23: real time    1.23
    ORTHCH:  cpu time    0.02: real time    0.02
       DOS:  cpu time    0.00: real time    0.00
    CHARGE:  cpu time    0.19: real time    0.19
    MIXING:  cpu time    0.00: real time    0.00
    --------------------------------------------
      LOOP:  cpu time    1.91: real time    1.91

 eigenvalue-minimisations  :   288
 total energy-change (2. order) : 0.8704606E+01  (-0.4119498E+01)
 number of electron  100.9999950 magnetization 
 augmentation part     5.7540241 magnetization 

 Broyden mixing:
  rms(total) = 0.36486E+00    rms(broyden)= 0.36430E+00
  rms(prec ) = 0.56247E+00
  weight for this iteration     100.00

 eigenvalues of (default mixing * dielectric matrix)
  average eigenvalue GAMMA=   1.2096
  2.0145  0.8071  0.8071

 Free energy of the ion-electron system (eV)
  ---------------------------------------------------
  alpha Z        PSCENC =        15.76595319
  Ewald energy   TEWEN  =     -2790.52372845
  -1/2 Hartree   DENC   =      -728.54744521
  -exchange  EXHF       =         0.00000000
  -V(xc)+E(xc)   XCENC  =      -744.08529271
  PAW double counting   =      2129.59577920    -1323.66983537
  entropy T*S    EENTRO =         0.00764710
  eigenvalues    EBANDS =       329.59041152
  atomic energy  EATOM  =      2997.07640482
  ---------------------------------------------------
  free energy    TOTEN  =      -114.79010591 eV

  energy without entropy =     -114.79775301  energy(sigma->0) =     -114.79265494


--------------------------------------------------------------------------------------------------------




----------------------------------------- Iteration    1(  16)  ---------------------------------------


    POTLOK:  cpu time    0.15: real time    0.15
    SETDIJ:  cpu time    0.01: real time    0.02
    EDDIAG:  cpu time    0.31: real time    0.31
  RMM-DIIS:  cpu time    1.28: real time    1.29
    ORTHCH:  cpu time    0.02: real time    0.02
       DOS:  cpu time    0.00: real time    0.00
    CHARGE:  cpu time    0.19: real time    0.19
    MIXING:  cpu time    0.00: real time    0.00
    --------------------------------------------
      LOOP:  cpu time    1.97: real time    1.98

 eigenvalue-minimisations  :   300
 total energy-change (2. order) :-0.9666586E-01  (-0.9824518E-01)
 number of electron  100.9999948 magnetization 
 augmentation part     6.0565909 magnetization 

 Broyden mixing:
  rms(total) = 0.81163E-01    rms(broyden)= 0.81136E-01
  rms(prec ) = 0.11932E+00
  weight for this iteration     100.00

 eigenvalues of (default mixing * dielectric matrix)
  average eigenvalue GAMMA=   1.3040
  2.4340  0.7634  0.7634  1.2550

 Free energy of the ion-electron system (eV)
  ---------------------------------------------------
  alpha Z        PSCENC =        15.76595319
  Ewald energy   TEWEN  =     -2790.52372845
  -1/2 Hartree   DENC   =      -725.90013362
  -exchange  EXHF       =         0.00000000
  -V(xc)+E(xc)   XCENC  =      -743.56628586
  PAW double counting   =      2134.87735478    -1325.31468992
  entropy T*S    EENTRO =         0.00577101
  eigenvalues    EBANDS =       322.69258228
  atomic energy  EATOM  =      2997.07640482
  ---------------------------------------------------
  free energy    TOTEN  =      -114.88677176 eV

  energy without entropy =     -114.89254277  energy(sigma->0) =     -114.88869543


--------------------------------------------------------------------------------------------------------




----------------------------------------- Iteration    1(  17)  ---------------------------------------


    POTLOK:  cpu time    0.15: real time    0.15
    SETDIJ:  cpu time    0.02: real time    0.02
    EDDIAG:  cpu time    0.30: real time    0.30
  RMM-DIIS:  cpu time    1.35: real time    1.35
    ORTHCH:  cpu time    0.02: real time    0.02
       DOS:  cpu time    0.00: real time    0.00
    CHARGE:  cpu time    0.19: real time    0.19
    MIXING:  cpu time    0.00: real time    0.00
    --------------------------------------------
      LOOP:  cpu time    2.03: real time    2.03

 eigenvalue-minimisations  :   307
 total energy-change (2. order) : 0.2148674E-01  (-0.8257889E-02)
 number of electron  100.9999948 magnetization 
 augmentation part     6.0905041 magnetization 

 Broyden mixing:
  rms(total) = 0.50827E-01    rms(broyden)= 0.50826E-01
  rms(prec ) = 0.75581E-01
  weight for this iteration     100.00

 eigenvalues of (default mixing * dielectric matrix)
  average eigenvalue GAMMA=   1.2784
  2.5723  0.7654  0.7654  1.1445  1.1445

 Free energy of the ion-electron system (eV)
  ---------------------------------------------------
  alpha Z        PSCENC =        15.76595319
  Ewald energy   TEWEN  =     -2790.52372845
  -1/2 Hartree   DENC   =      -728.58718416
  -exchange  EXHF       =         0.00000000
  -V(xc)+E(xc)   XCENC  =      -743.13166279
  PAW double counting   =      2144.98683879    -1332.32565969
  entropy T*S    EENTRO =         0.00565906
  eigenvalues    EBANDS =       321.86809421
  atomic energy  EATOM  =      2997.07640482
  ---------------------------------------------------
  free energy    TOTEN  =      -114.86528502 eV

  energy without entropy =     -114.87094408  energy(sigma->0) =     -114.86717137


--------------------------------------------------------------------------------------------------------




----------------------------------------- Iteration    1(  18)  ---------------------------------------


    POTLOK:  cpu time    0.15: real time    0.15
    SETDIJ:  cpu time    0.02: real time    0.02
    EDDIAG:  cpu time    0.30: real time    0.30
  RMM-DIIS:  cpu time    1.26: real time    1.27
    ORTHCH:  cpu time    0.02: real time    0.02
       DOS:  cpu time    0.00: real time    0.00
    CHARGE:  cpu time    0.19: real time    0.20
    MIXING:  cpu time    0.00: real time    0.00
    --------------------------------------------
      LOOP:  cpu time    1.95: real time    1.96

 eigenvalue-minimisations  :   289
 total energy-change (2. order) :-0.1957365E-01  (-0.5346685E-02)
 number of electron  100.9999947 magnetization 
 augmentation part     6.1486072 magnetization 

 Broyden mixing:
  rms(total) = 0.10793E+00    rms(broyden)= 0.10793E+00
  rms(prec ) = 0.17018E+00
  weight for this iteration     100.00

 eigenvalues of (default mixing * dielectric matrix)
  average eigenvalue GAMMA=   1.4646
  2.5749  2.5749  0.7761  0.7761  1.1850  0.9006

 Free energy of the ion-electron system (eV)
  ---------------------------------------------------
  alpha Z        PSCENC =        15.76595319
  Ewald energy   TEWEN  =     -2790.52372845
  -1/2 Hartree   DENC   =      -727.85571193
  -exchange  EXHF       =         0.00000000
  -V(xc)+E(xc)   XCENC  =      -743.06736810
  PAW double counting   =      2143.88173968    -1329.75487257
  entropy T*S    EENTRO =         0.00466738
  eigenvalues    EBANDS =       319.58805732
  atomic energy  EATOM  =      2997.07640482
  ---------------------------------------------------
  free energy    TOTEN  =      -114.88485866 eV

  energy without entropy =     -114.88952605  energy(sigma->0) =     -114.88641446


--------------------------------------------------------------------------------------------------------




----------------------------------------- Iteration    1(  19)  ---------------------------------------


    POTLOK:  cpu time    0.15: real time    0.15
    SETDIJ:  cpu time    0.02: real time    0.02
    EDDIAG:  cpu time    0.30: real time    0.30
  RMM-DIIS:  cpu time    1.22: real time    1.23
    ORTHCH:  cpu time    0.02: real time    0.02
       DOS:  cpu time    0.00: real time    0.00
    CHARGE:  cpu time    0.19: real time    0.19
    MIXING:  cpu time    0.00: real time    0.00
    --------------------------------------------
      LOOP:  cpu time    1.90: real time    1.91

 eigenvalue-minimisations  :   288
 total energy-change (2. order) : 0.1238495E-01  (-0.2529342E-01)
 number of electron  100.9999948 magnetization 
 augmentation part     5.9970940 magnetization 

 Broyden mixing:
  rms(total) = 0.77664E-01    rms(broyden)= 0.77644E-01
  rms(prec ) = 0.11746E+00
  weight for this iteration     100.00

 eigenvalues of (default mixing * dielectric matrix)
  average eigenvalue GAMMA=   1.2621
  2.5824  2.1411  1.1498  0.7735  0.7735  0.8534  0.5613

 Free energy of the ion-electron system (eV)
  ---------------------------------------------------
  alpha Z        PSCENC =        15.76595319
  Ewald energy   TEWEN  =     -2790.52372845
  -1/2 Hartree   DENC   =      -732.87799204
  -exchange  EXHF       =         0.00000000
  -V(xc)+E(xc)   XCENC  =      -742.83173679
  PAW double counting   =      2151.41714077    -1337.93651496
  entropy T*S    EENTRO =         0.00608302
  eigenvalues    EBANDS =       325.03191672
  atomic energy  EATOM  =      2997.07640482
  ---------------------------------------------------
  free energy    TOTEN  =      -114.87247372 eV

  energy without entropy =     -114.87855674  energy(sigma->0) =     -114.87450139


--------------------------------------------------------------------------------------------------------




----------------------------------------- Iteration    1(  20)  ---------------------------------------


    POTLOK:  cpu time    0.15: real time    0.15
    SETDIJ:  cpu time    0.01: real time    0.02
    EDDIAG:  cpu time    0.30: real time    0.30
  RMM-DIIS:  cpu time    1.20: real time    1.20
    ORTHCH:  cpu time    0.02: real time    0.02
       DOS:  cpu time    0.00: real time    0.00
    CHARGE:  cpu time    0.20: real time    0.20
    MIXING:  cpu time    0.00: real time    0.00
    --------------------------------------------
      LOOP:  cpu time    1.89: real time    1.89

 eigenvalue-minimisations  :   278
 total energy-change (2. order) : 0.9812387E-02  (-0.1337802E-02)
 number of electron  100.9999948 magnetization 
 augmentation part     6.0377193 magnetization 

 Broyden mixing:
  rms(total) = 0.27952E-01    rms(broyden)= 0.27951E-01
  rms(prec ) = 0.43073E-01
  weight for this iteration     100.00

 eigenvalues of (default mixing * dielectric matrix)
  average eigenvalue GAMMA=   1.3057
  2.6007  2.3439  1.1388  0.9216  0.7932  0.7932  0.9271  0.9271

 Free energy of the ion-electron system (eV)
  ---------------------------------------------------
  alpha Z        PSCENC =        15.76595319
  Ewald energy   TEWEN  =     -2790.52372845
  -1/2 Hartree   DENC   =      -731.68618407
  -exchange  EXHF       =         0.00000000
  -V(xc)+E(xc)   XCENC  =      -742.88709093
  PAW double counting   =      2149.71257380    -1335.98733511
  entropy T*S    EENTRO =         0.00593124
  eigenvalues    EBANDS =       323.66081417
  atomic energy  EATOM  =      2997.07640482
  ---------------------------------------------------
  free energy    TOTEN  =      -114.86266133 eV

  energy without entropy =     -114.86859258  energy(sigma->0) =     -114.86463841


--------------------------------------------------------------------------------------------------------




----------------------------------------- Iteration    1(  21)  ---------------------------------------


    POTLOK:  cpu time    0.15: real time    0.15
    SETDIJ:  cpu time    0.01: real time    0.02
    EDDIAG:  cpu time    0.30: real time    0.30
  RMM-DIIS:  cpu time    1.19: real time    1.19
    ORTHCH:  cpu time    0.02: real time    0.02
       DOS:  cpu time    0.00: real time    0.00
    CHARGE:  cpu time    0.19: real time    0.19
    MIXING:  cpu time    0.00: real time    0.00
    --------------------------------------------
      LOOP:  cpu time    1.86: real time    1.86

 eigenvalue-minimisations  :   269
 total energy-change (2. order) : 0.1627210E-02  (-0.7350141E-03)
 number of electron  100.9999948 magnetization 
 augmentation part     6.0616057 magnetization 

 Broyden mixing:
  rms(total) = 0.83945E-03    rms(broyden)= 0.77043E-03
  rms(prec ) = 0.17028E-02
  weight for this iteration     100.00

 eigenvalues of (default mixing * dielectric matrix)
  average eigenvalue GAMMA=   1.3064
  2.6162  2.4269  1.0494  1.0494  0.7871  0.7871  1.2374  0.9685  0.8352

 Free energy of the ion-electron system (eV)
  ---------------------------------------------------
  alpha Z        PSCENC =        15.76595319
  Ewald energy   TEWEN  =     -2790.52372845
  -1/2 Hartree   DENC   =      -731.08749012
  -exchange  EXHF       =         0.00000000
  -V(xc)+E(xc)   XCENC  =      -742.90618478
  PAW double counting   =      2148.61009678    -1334.64263315
  entropy T*S    EENTRO =         0.00576875
  eigenvalues    EBANDS =       322.84077882
  atomic energy  EATOM  =      2997.07640482
  ---------------------------------------------------
  free energy    TOTEN  =      -114.86103412 eV

  energy without entropy =     -114.86680287  energy(sigma->0) =     -114.86295704


--------------------------------------------------------------------------------------------------------




----------------------------------------- Iteration    1(  22)  ---------------------------------------


    POTLOK:  cpu time    0.15: real time    0.15
    SETDIJ:  cpu time    0.01: real time    0.02
    EDDIAG:  cpu time    0.30: real time    0.30
  RMM-DIIS:  cpu time    0.87: real time    0.87
    ORTHCH:  cpu time    0.02: real time    0.02
       DOS:  cpu time    0.00: real time    0.00
    --------------------------------------------
      LOOP:  cpu time    1.35: real time    1.36

 eigenvalue-minimisations  :   186
 total energy-change (2. order) :-0.1758087E-04  (-0.1383569E-04)
 number of electron  100.9999948 magnetization 
 augmentation part     6.0616057 magnetization 

 Free energy of the ion-electron system (eV)
  ---------------------------------------------------
  alpha Z        PSCENC =        15.76595319
  Ewald energy   TEWEN  =     -2790.52372845
  -1/2 Hartree   DENC   =      -731.13483256
  -exchange  EXHF       =         0.00000000
  -V(xc)+E(xc)   XCENC  =      -742.90151537
  PAW double counting   =      2148.60380137    -1334.62954989
  entropy T*S    EENTRO =         0.00573023
  eigenvalues    EBANDS =       322.87668496
  atomic energy  EATOM  =      2997.07640482
  ---------------------------------------------------
  free energy    TOTEN  =      -114.86105170 eV

  energy without entropy =     -114.86678193  energy(sigma->0) =     -114.86296178


--------------------------------------------------------------------------------------------------------




 average (electrostatic) potential at core
  the test charge radii are     1.0406  1.0053
  (the norm of the test charge is              1.0000)
       1 -73.2127       2 -73.2514       3 -73.2675       4 -73.1783       5 -73.2234
       6 -73.2234       7 -73.1654       8 -73.2127       9 -73.2514      10 -73.2209
      11 -73.2221      12 -73.2234      13 -73.2234      14 -72.9914      15 -73.2250
      16 -73.1869      17 -73.1869      18 -73.1624      19 -73.2514      20 -73.2127
      21 -73.2675      22 -73.1783      23 -73.1869      24 -73.1869      25 -73.3084
      26 -73.1133      27 -73.2514      28 -73.2127      29 -73.2209      30 -73.2221
      31 -36.5718
 
 
 
 E-fermi :   7.7382     XC(G=0): -10.0630     alpha+bet :-14.1381
   add alpha+bet to get absolut eigen values

 k-point   1 :       0.2500    0.2500    0.2500
  band No.  band energies     occupation 
      1      -3.1542      2.00000
      2      -2.1051      2.00000
      3      -1.9860      2.00000
      4      -1.8438      2.00000
      5      -0.9480      2.00000
      6      -0.8259      2.00000
      7      -0.6136      2.00000
      8       0.0997      2.00000
      9       0.2042      2.00000
     10       0.3389      2.00000
     11       0.5410      2.00000
     12       1.2378      2.00000
     13       1.2636      2.00000
     14       1.3098      2.00000
     15       1.4383      2.00000
     16       1.4819      2.00000
     17       1.7926      2.00000
     18       2.5065      2.00000
     19       2.5830      2.00000
     20       2.7426      2.00000
     21       3.3392      2.00000
     22       3.3736      2.00000
     23       3.4438      2.00000
     24       3.4900      2.00000
     25       3.5539      2.00000
     26       3.7536      2.00000
     27       3.9610      2.00000
     28       4.0704      2.00000
     29       4.2120      2.00000
     30       4.2936      2.00000
     31       4.3748      2.00000
     32       4.4724      2.00000
     33       4.6292      2.00000
     34       4.6894      2.00000
     35       4.7753      2.00000
     36       4.8164      2.00000
     37       4.9310      2.00000
     38       4.9544      2.00000
     39       5.0465      2.00000
     40       5.3860      2.00000
     41       5.7002      2.00000
     42       6.0090      2.00000
     43       6.2735      2.00000
     44       6.6207      2.00000
     45       6.6993      2.00000
     46       6.7670      2.00000
     47       6.9245      2.00000
     48       6.9576      2.00000
     49       7.0037      2.00000
     50       7.0770      2.00003
     51       7.7531      0.87448
     52       7.8775      0.08283
     53       7.9670     -0.06868
     54       7.9723     -0.06994
     55       8.0116     -0.06580
     56       8.1171     -0.02213
     57       8.1458     -0.01411
     58       8.1814     -0.00749
     59       8.2473     -0.00188
     60       9.0091      0.00000
     61       9.0933      0.00000
     62       9.1270      0.00000
     63       9.3171      0.00000
     64       9.3885      0.00000
     65       9.3995      0.00000
     66       9.8498      0.00000
     67       9.8906      0.00000
     68       9.9756      0.00000
     69      10.0245      0.00000
     70      10.1096      0.00000
     71      10.1818      0.00000
     72      10.6267      0.00000

 k-point   2 :      -0.2500    0.2500    0.2500
  band No.  band energies     occupation 
      1      -3.1536      2.00000
      2      -2.0903      2.00000
      3      -2.0108      2.00000
      4      -1.8399      2.00000
      5      -0.9417      2.00000
      6      -0.8749      2.00000
      7      -0.5278      2.00000
      8       0.1253      2.00000
      9       0.1860      2.00000
     10       0.3352      2.00000
     11       0.4995      2.00000
     12       1.1943      2.00000
     13       1.2521      2.00000
     14       1.2577      2.00000
     15       1.3806      2.00000
     16       1.6165      2.00000
     17       1.8034      2.00000
     18       2.5518      2.00000
     19       2.5566      2.00000
     20       2.7472      2.00000
     21       3.3377      2.00000
     22       3.3678      2.00000
     23       3.4376      2.00000
     24       3.5152      2.00000
     25       3.5383      2.00000
     26       3.8260      2.00000
     27       3.9625      2.00000
     28       4.0990      2.00000
     29       4.2054      2.00000
     30       4.2423      2.00000
     31       4.4069      2.00000
     32       4.4848      2.00000
     33       4.5828      2.00000
     34       4.6490      2.00000
     35       4.7911      2.00000
     36       4.8132      2.00000
     37       4.9117      2.00000
     38       5.0218      2.00000
     39       5.1025      2.00000
     40       5.3176      2.00000
     41       5.6864      2.00000
     42       5.8474      2.00000
     43       6.4186      2.00000
     44       6.6090      2.00000
     45       6.6729      2.00000
     46       6.6870      2.00000
     47       6.9278      2.00000
     48       6.9297      2.00000
     49       6.9928      2.00000
     50       7.0510      2.00001
     51       7.7427      0.96140
     52       7.8002      0.50209
     53       7.9169     -0.02058
     54       7.9704     -0.06956
     55       8.0210     -0.06250
     56       8.1408     -0.01533
     57       8.2354     -0.00246
     58       8.3134     -0.00037
     59       8.5123      0.00000
     60       8.9484      0.00000
     61       9.0394      0.00000
     62       9.0843      0.00000
     63       9.2745      0.00000
     64       9.3322      0.00000
     65       9.4218      0.00000
     66       9.8764      0.00000
     67       9.9299      0.00000
     68       9.9727      0.00000
     69       9.9898      0.00000
     70      10.1784      0.00000
     71      10.2098      0.00000
     72      10.6337      0.00000


--------------------------------------------------------------------------------------------------------


 soft charge-density along one line, spin component           1
         0         1         2         3         4         5         6         7         8         9
 total charge-density along one line
 
 pseudopotential strength for first ion, spin component:           1
  8.466  -0.005   0.000   0.000   0.000   0.000   0.000   0.000
 -0.005   0.000   0.000   0.000   0.000   0.000   0.000   0.000
  0.000   0.000   1.988   0.000   0.000  -0.025   0.000   0.000
  0.000   0.000   0.000   1.988   0.000   0.000  -0.025   0.000
  0.000   0.000   0.000   0.000   1.988   0.000   0.000  -0.025
  0.000   0.000  -0.025   0.000   0.000  -0.012   0.000   0.000
  0.000   0.000   0.000  -0.025   0.000   0.000  -0.012   0.000
  0.000   0.000   0.000   0.000  -0.025   0.000   0.000  -0.012
 total augmentation occupancy for first ion, spin component:           1
  1.306  -0.534  -0.019  -0.009  -0.002   0.017   0.009   0.003
 -0.534   0.512   0.026   0.015   0.000  -0.013  -0.008  -0.001
 -0.019   0.026   0.755   0.003   0.001  -0.190  -0.001   0.000
 -0.009   0.015   0.003   0.756   0.001  -0.001  -0.190  -0.001
 -0.002   0.000   0.001   0.001   0.746   0.000  -0.001  -0.189
  0.017  -0.013  -0.190  -0.001   0.000   0.054   0.001   0.000
  0.009  -0.008  -0.001  -0.190  -0.001   0.001   0.053   0.001
  0.003  -0.001   0.000  -0.001  -0.189   0.000   0.001   0.053


------------------------ aborting loop because EDIFF is reached ----------------------------------------




--------------------------------------------------------------------------------------------------------



  FREE ENERGIE OF THE ION-ELECTRON SYSTEM (eV)
  ---------------------------------------------------
  free  energy   TOTEN  =      -114.861052 eV

  energy  without entropy=     -114.866782  energy(sigma->0) =     -114.862962
 
    CHARGE:  cpu time    0.18: real time    0.18
    FORLOC:  cpu time    0.03: real time    0.04
    FORNL :  cpu time    0.48: real time    0.48
    STRESS:  cpu time    1.08: real time    1.08
    FORCOR:  cpu time    0.17: real time    0.17
    FORHAR:  cpu time    0.07: real time    0.07
    MIXING:  cpu time    0.00: real time    0.01

  FORCE on cell =-STRESS in cart. coord.  units (eV):
  Direction    XX          YY          ZZ          XY          YZ          ZX
  --------------------------------------------------------------------------------------
  Alpha Z    15.76595    15.76595    15.76595
  Ewald    -956.33911  -877.85605  -956.33911     0.00000     0.00000    50.75227
  Hartree   224.26241   282.52340   224.26241     0.00000     0.00000    32.61054
  E(xc)    -317.89247  -317.81065  -317.89247     0.00000     0.00000     0.08171
  Local     -47.57596  -183.81603   -47.57596     0.00000     0.00000   -82.89074
  n-local   528.96238   528.30832   528.96254    -0.19665    -0.93676    -0.59869
  augment    25.96567    25.82147    25.96567     0.00001     0.00000    -0.19697
  Kinetic   522.00495   523.12125   522.00519     2.12066     2.34502    -1.82284
  Fock        0.00000     0.00000     0.00000     0.00000     0.00000     0.00000
  -------------------------------------------------------------------------------------
  Total      -4.84599    -3.94233    -4.84599     0.00000     0.00000    -2.06471
  in kB     -14.67994   -11.94250   -14.67994     0.00000     0.00000    -6.25462
  external pressure =      -13.77 kB  Pullay stress =        0.00 kB


 VOLUME and BASIS-vectors are now :
 -----------------------------------------------------------------------------
  energy-cutoff  :      300.00
  volume of cell :      528.89
      direct lattice vectors                 reciprocal lattice vectors
     8.087040000  0.000000000  0.000000000     0.123654638  0.000000000  0.000000000
     0.000000000  8.087040000  0.000000000     0.000000000  0.123654638  0.000000000
     0.000000000  0.000000000  8.087040000     0.000000000  0.000000000  0.123654638

  length of vectors
     8.087040000  8.087040000  8.087040000     0.123654638  0.123654638  0.123654638


 FORCES acting on ions
    electron-ion (+dipol)            ewald-force                    non-local-force                 convergence-correction
 -----------------------------------------------------------------------------------------------
   -.342E+01 -.158E+01 0.269E+01   0.319E+01 0.906E+00 -.299E+01   0.155E+00 0.103E+01 0.507E+00   0.660E-03 0.460E-03 -.128E-02
   0.238E+02 0.149E+02 -.113E+02   -.240E+02 -.151E+02 0.110E+02   0.430E+00 0.526E+00 0.599E+00   -.108E-02 0.642E-03 0.722E-03
   0.239E+02 -.123E-12 0.261E+02   -.241E+02 -.468E-14 -.260E+02   0.464E+00 0.000E+00 -.995E-01   -.103E-02 0.263E-13 -.134E-02
   -.834E+01 0.462E-13 -.113E+02   0.842E+01 0.183E-14 0.111E+02   -.787E-01 0.000E+00 0.420E+00   0.579E-03 0.167E-13 0.859E-03
   0.287E+01 0.213E+02 0.247E+02   -.267E+01 -.216E+02 -.247E+02   -.143E+00 0.428E+00 0.162E+00   -.553E-03 0.575E-03 -.107E-02
   -.247E+02 0.213E+02 -.287E+01   0.247E+02 -.216E+02 0.267E+01   -.162E+00 0.428E+00 0.143E+00   0.106E-02 0.573E-03 0.554E-03
   -.219E+02 0.164E-12 0.219E+02   0.223E+02 0.213E-13 -.223E+02   -.645E+00 0.000E+00 0.645E+00   0.962E-03 0.204E-13 -.967E-03
   -.342E+01 0.158E+01 0.269E+01   0.319E+01 -.906E+00 -.299E+01   0.155E+00 -.103E+01 0.507E+00   0.660E-03 -.460E-03 -.128E-02
   0.238E+02 -.149E+02 -.113E+02   -.240E+02 0.151E+02 0.110E+02   0.430E+00 -.526E+00 0.599E+00   -.108E-02 -.642E-03 0.722E-03
   0.173E+01 -.589E-13 0.359E+01   -.199E+01 -.746E-13 -.390E+01   0.578E+00 0.000E+00 0.437E+00   -.115E-02 -.266E-13 -.131E-02
   -.338E+01 0.359E-13 -.523E+01   0.314E+01 -.201E-13 0.496E+01   0.176E+00 0.000E+00 0.431E+00   0.463E-03 -.162E-13 0.571E-03
   0.287E+01 -.213E+02 0.247E+02   -.267E+01 0.216E+02 -.247E+02   -.143E+00 -.428E+00 0.162E+00   -.553E-03 -.575E-03 -.107E-02
   -.247E+02 -.213E+02 -.287E+01   0.247E+02 0.216E+02 0.267E+01   -.162E+00 -.428E+00 0.143E+00   0.106E-02 -.573E-03 0.554E-03
   -.302E+00 0.999E-13 0.302E+00   0.103E+01 0.138E-14 -.103E+01   -.122E+01 0.000E+00 0.122E+01   0.111E-02 -.195E-13 -.111E-02
   0.297E+01 -.263E-12 -.297E+01   -.271E+01 0.160E-14 0.271E+01   -.131E+00 0.000E+00 0.131E+00   -.509E-03 -.110E-13 0.510E-03
   -.115E+02 -.646E+01 -.297E+01   0.113E+02 0.624E+01 0.323E+01   0.437E+00 0.580E+00 -.432E+00   0.851E-03 0.767E-03 0.138E-02
   0.297E+01 -.646E+01 0.115E+02   -.323E+01 0.624E+01 -.113E+02   0.432E+00 0.580E+00 -.437E+00   -.137E-02 0.767E-03 -.852E-03
   -.115E+02 0.186E-13 0.115E+02   0.113E+02 -.172E-11 -.113E+02   0.507E+00 0.000E+00 -.507E+00   0.108E-02 0.226E-13 -.108E-02
   0.113E+02 0.149E+02 -.238E+02   -.110E+02 -.151E+02 0.240E+02   -.599E+00 0.526E+00 -.430E+00   -.721E-03 0.644E-03 0.109E-02
   -.269E+01 -.158E+01 0.342E+01   0.299E+01 0.906E+00 -.319E+01   -.507E+00 0.103E+01 -.155E+00   0.128E-02 0.461E-03 -.661E-03
   -.261E+02 0.239E-12 -.239E+02   0.260E+02 0.921E-14 0.241E+02   0.995E-01 0.217E-18 -.464E+00   0.133E-02 0.157E-13 0.104E-02
   0.113E+02 0.705E-13 0.834E+01   -.111E+02 0.736E-12 -.842E+01   -.420E+00 0.000E+00 0.787E-01   -.857E-03 0.313E-13 -.581E-03
   -.115E+02 0.646E+01 -.297E+01   0.113E+02 -.624E+01 0.323E+01   0.437E+00 -.580E+00 -.432E+00   0.851E-03 -.767E-03 0.138E-02
   0.297E+01 0.646E+01 0.115E+02   -.323E+01 -.624E+01 -.113E+02   0.432E+00 -.580E+00 -.437E+00   -.137E-02 -.767E-03 -.852E-03
   0.436E+01 -.248E-13 -.436E+01   -.459E+01 0.873E-12 0.459E+01   0.204E+00 0.000E+00 -.204E+00   -.125E-02 -.236E-13 0.125E-02
   -.686E+01 0.262E-12 0.686E+01   0.618E+01 0.791E-13 -.618E+01   0.105E+01 0.000E+00 -.105E+01   0.739E-03 -.223E-13 -.740E-03
   0.113E+02 -.149E+02 -.238E+02   -.110E+02 0.151E+02 0.240E+02   -.599E+00 -.526E+00 -.430E+00   -.721E-03 -.644E-03 0.109E-02
   -.269E+01 0.158E+01 0.342E+01   0.299E+01 -.906E+00 -.319E+01   -.507E+00 -.103E+01 -.155E+00   0.128E-02 -.461E-03 -.661E-03
   -.359E+01 -.331E-12 -.173E+01   0.390E+01 -.506E-14 0.199E+01   -.437E+00 0.000E+00 -.578E+00   0.131E-02 -.163E-13 0.115E-02
   0.523E+01 0.180E-12 0.338E+01   -.496E+01 0.511E-16 -.314E+01   -.431E+00 0.000E+00 -.176E+00   -.570E-03 -.311E-13 -.464E-03
   0.349E+02 0.589E-12 -.349E+02   -.355E+02 -.413E-14 0.355E+02   0.660E+00 0.000E+00 -.660E+00   -.720E-03 -.125E-12 0.728E-03
 -----------------------------------------------------------------------------------------------
   -.471E+00 0.126E-12 0.471E+00   0.000E+00 0.446E-13 0.355E-13   0.468E+00 0.000E+00 -.468E+00   0.173E-02 -.163E-12 -.173E-02
 
 
 POSITION                                       TOTAL-FORCE (eV/Angst)
 -----------------------------------------------------------------------------------
      8.07867      8.02083      8.05418        -0.071334      0.354882      0.210065
      2.00678      8.08169      1.99082         0.214299      0.343511      0.317594
      2.00747      2.02176      0.02395         0.260787      0.000000      0.005227
      0.01242      2.02176      1.99476        -0.003676      0.000000      0.285665
      4.05596      8.08600      0.00898         0.056483      0.158813      0.153779
      6.05630      8.08600      2.00932        -0.153779      0.158813     -0.056483
      6.10010      2.02176      8.05222        -0.246733      0.000000      0.246733
      8.07867      4.10973      8.05418        -0.071334     -0.354882      0.210065
      2.00678      4.04887      1.99082         0.214299     -0.343511      0.317594
      1.99581      6.06528      8.05838         0.309457      0.000000      0.121359
      8.06820      6.06528      1.99074        -0.063385      0.000000      0.155258
      4.05596      4.04456      0.00898         0.056483     -0.158813      0.153779
      6.05630      4.04456      2.00932        -0.153779     -0.158813     -0.056483
      6.12275      6.06528      8.02957        -0.483049      0.000000      0.483049
      4.04791      6.06528      2.01737         0.135210      0.000000     -0.135210
      8.05990      8.05292      4.06986         0.310525      0.362981     -0.163961
      1.99542      8.05292      6.09242         0.163961      0.362981     -0.310525
      8.05514      2.02176      6.09718         0.303928      0.000000     -0.303928
      4.07446      8.08169      4.05850        -0.317594      0.343511     -0.214299
      6.09814      8.02083      6.07365        -0.210065      0.354882      0.071334
      6.04133      2.02176      4.05781        -0.005227      0.000000     -0.260787
      4.07052      2.02176      6.05286        -0.285665      0.000000      0.003676
      8.05990      4.07764      4.06986         0.310525     -0.362981     -0.163961
      1.99542      4.07764      6.09242         0.163961     -0.362981     -0.310525
      2.01789      6.06528      4.04739        -0.024171      0.000000      0.024171
      8.03522      6.06528      6.11710         0.366265      0.000000     -0.366265
      4.07446      4.04887      4.05850        -0.317594     -0.343511     -0.214299
[...]
  alpha Z        PSCENC =        15.76595319
  Ewald energy   TEWEN  =     -2773.76555630
  -1/2 Hartree   DENC   =      -748.24539942
  -exchange  EXHF       =         0.00000000
  -V(xc)+E(xc)   XCENC  =      -743.19524403
  PAW double counting   =      2153.33752759    -1339.43777819
  entropy T*S    EENTRO =        -0.01866011
  eigenvalues    EBANDS =       323.22355736
  atomic energy  EATOM  =      2997.07640482
  ---------------------------------------------------
  free energy    TOTEN  =      -115.25919508 eV

  energy without entropy =     -115.24053498  energy(sigma->0) =     -115.25297505


--------------------------------------------------------------------------------------------------------




 average (electrostatic) potential at core
  the test charge radii are     1.0406  1.0053
  (the norm of the test charge is              1.0000)
       1 -73.2095       2 -73.2039       3 -73.2526       4 -73.1535       5 -73.2201
       6 -73.2201       7 -73.2100       8 -73.2095       9 -73.2039      10 -73.2455
      11 -73.2244      12 -73.2201      13 -73.2201      14 -72.9975      15 -73.2082
      16 -73.1794      17 -73.1794      18 -73.1582      19 -73.2039      20 -73.2095
      21 -73.2526      22 -73.1535      23 -73.1794      24 -73.1794      25 -73.2987
      26 -73.1312      27 -73.2039      28 -73.2095      29 -73.2455      30 -73.2244
      31 -36.7694
 
 
 
 E-fermi :   7.7524     XC(G=0): -10.0739     alpha+bet :-14.1381
   add alpha+bet to get absolut eigen values

 k-point   1 :       0.2500    0.2500    0.2500
  band No.  band energies     occupation 
      1      -3.0392      2.00000
      2      -1.9764      2.00000
      3      -1.9240      2.00000
      4      -1.8054      2.00000
      5      -0.8651      2.00000
      6      -0.8042      2.00000
      7      -0.6237      2.00000
      8       0.2367      2.00000
      9       0.2736      2.00000
     10       0.3082      2.00000
     11       0.5614      2.00000
     12       1.2923      2.00000
     13       1.3148      2.00000
     14       1.3813      2.00000
     15       1.4006      2.00000
     16       1.5285      2.00000
     17       1.7920      2.00000
     18       2.4670      2.00000
     19       2.5328      2.00000
     20       2.6600      2.00000
     21       3.3210      2.00000
     22       3.3740      2.00000
     23       3.4539      2.00000
     24       3.5288      2.00000
     25       3.5996      2.00000
     26       3.7105      2.00000
     27       3.8793      2.00000
     28       3.9868      2.00000
     29       4.1093      2.00000
     30       4.1696      2.00000
     31       4.2181      2.00000
     32       4.5925      2.00000
     33       4.6308      2.00000
     34       4.6691      2.00000
     35       4.7603      2.00000
     36       4.8045      2.00000
     37       4.9178      2.00000
     38       4.9600      2.00000
     39       5.0070      2.00000
     40       5.3012      2.00000
     41       5.7031      2.00000
     42       5.9329      2.00000
     43       6.1777      2.00000
     44       6.7129      2.00000
     45       6.7727      2.00000
     46       6.8057      2.00000
     47       6.9391      2.00000
     48       6.9821      2.00000
     49       7.0166      2.00000
     50       7.0444      2.00001
     51       7.7819      0.75261
     52       7.8655      0.19212
     53       7.9379     -0.03184
     54       8.0302     -0.06433
     55       8.0459     -0.05812
     56       8.0794     -0.04289
     57       8.1473     -0.01734
     58       8.1822     -0.00959
     59       8.2537     -0.00225
     60       9.0837      0.00000
     61       9.1347      0.00000
     62       9.2164      0.00000
     63       9.3587      0.00000
     64       9.3819      0.00000
     65       9.4380      0.00000
     66       9.8591      0.00000
     67       9.9111      0.00000
     68       9.9802      0.00000
     69      10.0267      0.00000
     70      10.0559      0.00000
     71      10.1505      0.00000
     72      10.5600      0.00000

 k-point   2 :      -0.2500    0.2500    0.2500
  band No.  band energies     occupation 
      1      -3.0376      2.00000
      2      -1.9759      2.00000
      3      -1.9537      2.00000
      4      -1.7811      2.00000
      5      -0.8652      2.00000
      6      -0.8316      2.00000
      7      -0.5533      2.00000
      8       0.2354      2.00000
      9       0.2487      2.00000
     10       0.3419      2.00000
     11       0.4823      2.00000
     12       1.2845      2.00000
     13       1.3080      2.00000
     14       1.3281      2.00000
     15       1.4367      2.00000
     16       1.5495      2.00000
     17       1.8266      2.00000
     18       2.5032      2.00000
     19       2.5112      2.00000
     20       2.6347      2.00000
     21       3.3536      2.00000
     22       3.3771      2.00000
     23       3.4769      2.00000
     24       3.5360      2.00000
     25       3.5865      2.00000
     26       3.7753      2.00000
     27       3.8854      2.00000
     28       3.9715      2.00000
     29       4.1147      2.00000
     30       4.1174      2.00000
     31       4.2869      2.00000
     32       4.5510      2.00000
     33       4.6214      2.00000
     34       4.6305      2.00000
     35       4.7641      2.00000
     36       4.7884      2.00000
     37       4.8770      2.00000
     38       4.9996      2.00000
     39       5.0958      2.00000
     40       5.2034      2.00000
     41       5.6997      2.00000
     42       5.8009      2.00000
     43       6.2909      2.00000
     44       6.7120      2.00000
     45       6.7416      2.00000
     46       6.7501      2.00000
     47       6.9024      2.00000
     48       6.9861      2.00000
     49       7.0187      2.00000
     50       7.0631      2.00001
     51       7.7821      0.75161
     52       7.8255      0.42448
     53       7.8620      0.20915
     54       8.0768     -0.04407
     55       8.0895     -0.03837
     56       8.1664     -0.01266
     57       8.2094     -0.00572
     58       8.2454     -0.00270
     59       8.3711     -0.00011
     60       9.0254      0.00000
     61       9.0674      0.00000
     62       9.1437      0.00000
     63       9.3077      0.00000
     64       9.4052      0.00000
     65       9.4295      0.00000
     66       9.9508      0.00000
     67       9.9549      0.00000
     68       9.9648      0.00000
     69       9.9794      0.00000
     70      10.1595      0.00000
     71      10.1748      0.00000
     72      10.5508      0.00000


--------------------------------------------------------------------------------------------------------


 soft charge-density along one line, spin component           1
         0         1         2         3         4         5         6         7         8         9
 total charge-density along one line
 
 pseudopotential strength for first ion, spin component:           1
  8.464  -0.005   0.000   0.000   0.000   0.000   0.000   0.000
 -0.005   0.000   0.000   0.000   0.000   0.000   0.000   0.000
  0.000   0.000   1.987   0.000   0.000  -0.025   0.000   0.000
  0.000   0.000   0.000   1.987   0.000   0.000  -0.025   0.000
  0.000   0.000   0.000   0.000   1.987   0.000   0.000  -0.025
  0.000   0.000  -0.025   0.000   0.000  -0.012   0.000   0.000
  0.000   0.000   0.000  -0.025   0.000   0.000  -0.012   0.000
  0.000   0.000   0.000   0.000  -0.025   0.000   0.000  -0.012
 total augmentation occupancy for first ion, spin component:           1
  1.323  -0.492  -0.007  -0.004  -0.004   0.007   0.004   0.007
 -0.492   0.473   0.007   0.003   0.010  -0.004  -0.002  -0.005
 -0.007   0.007   0.735   0.003   0.003  -0.179   0.000   0.000
 -0.004   0.003   0.003   0.725   0.001   0.000  -0.177   0.000
 -0.004   0.010   0.003   0.001   0.715   0.000   0.000  -0.176
  0.007  -0.004  -0.179   0.000   0.000   0.049   0.000   0.000
  0.004  -0.002   0.000  -0.177   0.000   0.000   0.049   0.000
  0.007  -0.005   0.000   0.000  -0.176   0.000   0.000   0.049


------------------------ aborting loop because EDIFF is reached ----------------------------------------




--------------------------------------------------------------------------------------------------------



  FREE ENERGIE OF THE ION-ELECTRON SYSTEM (eV)
  ---------------------------------------------------
  free  energy   TOTEN  =      -115.259195 eV

  energy  without entropy=     -115.240535  energy(sigma->0) =     -115.252975
 
    CHARGE:  cpu time    0.19: real time    0.19
    FORLOC:  cpu time    0.03: real time    0.04
    FORNL :  cpu time    0.48: real time    0.48
    STRESS:  cpu time    1.09: real time    1.09
    FORCOR:  cpu time    0.17: real time    0.17
    FORHAR:  cpu time    0.07: real time    0.07
    MIXING:  cpu time    0.00: real time    0.00

  FORCE on cell =-STRESS in cart. coord.  units (eV):
  Direction    XX          YY          ZZ          XY          YZ          ZX
  --------------------------------------------------------------------------------------
  Alpha Z    15.76595    15.76595    15.76595
  Ewald    -946.75500  -880.26613  -946.75500     0.00000     0.00000    42.48562
  Hartree   233.28033   281.64030   233.28033     0.00000     0.00000    26.34290
  E(xc)    -317.44068  -317.30491  -317.44068     0.00000     0.00000     0.05209
  Local     -66.08343  -180.24252   -66.08343     0.00000     0.00000   -68.37209
  n-local   529.20928   527.88768   529.20932    -0.13879    -0.98310    -0.32270
  augment    25.99538    25.86558    25.99540    -0.00001     0.00000    -0.19128
  Kinetic   520.46248   520.53090   520.46244     2.00192     3.61689    -1.28080
  Fock        0.00000     0.00000     0.00000     0.00000     0.00000     0.00000
  -------------------------------------------------------------------------------------
  Total      -5.56566    -6.12314    -5.56566     0.00000     0.00000    -1.28627
  in kB     -16.86003   -18.54880   -16.86003     0.00000     0.00000    -3.89648
  external pressure =      -17.42 kB  Pullay stress =        0.00 kB


 VOLUME and BASIS-vectors are now :
 -----------------------------------------------------------------------------
  energy-cutoff  :      300.00
  volume of cell :      528.89
      direct lattice vectors                 reciprocal lattice vectors
     8.087040000  0.000000000  0.000000000     0.123654638  0.000000000  0.000000000
     0.000000000  8.087040000  0.000000000     0.000000000  0.123654638  0.000000000
     0.000000000  0.000000000  8.087040000     0.000000000  0.000000000  0.123654638

  length of vectors
     8.087040000  8.087040000  8.087040000     0.123654638  0.123654638  0.123654638


 FORCES acting on ions
    electron-ion (+dipol)            ewald-force                    non-local-force                 convergence-correction
 -----------------------------------------------------------------------------------------------
   -.365E+01 0.303E+01 0.519E+01   0.334E+01 -.340E+01 -.538E+01   0.345E+00 0.405E+00 0.210E+00   -.360E-03 -.170E-02 -.326E-03
   0.300E+02 0.226E+02 -.841E+01   -.298E+02 -.223E+02 0.858E+01   -.122E+00 -.234E+00 -.147E+00   -.392E-03 -.390E-03 -.849E-03
   0.285E+02 -.545E-13 0.288E+02   -.285E+02 0.239E-14 -.285E+02   -.274E-01 -.434E-18 -.304E+00   0.334E-03 0.306E-13 0.162E-03
   -.610E+01 0.372E-13 -.761E+01   0.639E+01 -.126E-14 0.782E+01   -.332E+00 0.000E+00 -.219E+00   -.212E-03 0.492E-13 -.273E-03
   0.278E+01 0.260E+02 0.283E+02   -.263E+01 -.261E+02 -.282E+02   -.145E+00 0.128E+00 -.789E-01   0.110E-02 0.161E-03 0.621E-03
   -.283E+02 0.260E+02 -.278E+01   0.282E+02 -.261E+02 0.263E+01   0.789E-01 0.128E+00 0.145E+00   -.624E-03 0.159E-03 -.110E-02
   -.270E+02 0.236E-12 0.270E+02   0.270E+02 -.378E-14 -.270E+02   -.785E-01 0.000E+00 0.785E-01   -.415E-03 0.422E-13 0.409E-03
   -.365E+01 -.303E+01 0.519E+01   0.334E+01 0.340E+01 -.538E+01   0.345E+00 -.405E+00 0.210E+00   -.360E-03 0.170E-02 -.326E-03
   0.300E+02 -.226E+02 -.841E+01   -.298E+02 0.223E+02 0.858E+01   -.122E+00 0.234E+00 -.147E+00   -.392E-03 0.390E-03 -.849E-03
   0.583E+01 -.104E-12 0.516E+01   -.588E+01 -.108E-14 -.537E+01   0.481E-01 0.000E+00 0.237E+00   -.168E-02 -.588E-13 0.243E-03
   -.396E+01 0.255E-13 -.321E+01   0.361E+01 -.475E-14 0.301E+01   0.389E+00 0.000E+00 0.224E+00   0.369E-03 -.515E-13 -.179E-02
   0.278E+01 -.260E+02 0.283E+02   -.263E+01 0.261E+02 -.282E+02   -.145E+00 -.128E+00 -.789E-01   0.110E-02 -.161E-03 0.621E-03
   -.283E+02 -.260E+02 -.278E+01   0.282E+02 0.261E+02 0.263E+01   0.789E-01 -.128E+00 0.145E+00   -.624E-03 -.159E-03 -.110E-02
   -.485E+01 -.700E-13 0.485E+01   0.518E+01 0.190E-14 -.518E+01   -.387E+00 0.000E+00 0.387E+00   0.108E-02 -.665E-13 -.108E-02
   0.325E+01 -.447E-11 -.325E+01   -.295E+01 0.573E-15 0.295E+01   -.287E+00 0.000E+00 0.287E+00   0.180E-03 -.113E-13 -.179E-03
   -.708E+01 -.806E+00 -.574E+01   0.734E+01 0.966E+00 0.582E+01   -.258E+00 -.171E+00 -.702E-01   -.310E-03 -.390E-03 0.104E-02
   0.574E+01 -.806E+00 0.708E+01   -.582E+01 0.966E+00 -.734E+01   0.702E-01 -.171E+00 0.258E+00   -.104E-02 -.389E-03 0.309E-03
   -.721E+01 -.103E-12 0.721E+01   0.747E+01 -.371E-14 -.747E+01   -.263E+00 0.000E+00 0.263E+00   -.944E-04 0.116E-12 0.931E-04
   0.841E+01 0.226E+02 -.300E+02   -.858E+01 -.223E+02 0.298E+02   0.147E+00 -.234E+00 0.122E+00   0.850E-03 -.387E-03 0.396E-03
   -.519E+01 0.303E+01 0.365E+01   0.538E+01 -.340E+01 -.334E+01   -.210E+00 0.405E+00 -.345E+00   0.322E-03 -.170E-02 0.359E-03
   -.288E+02 0.338E-13 -.285E+02   0.285E+02 0.454E-15 0.285E+02   0.304E+00 0.000E+00 0.274E-01   -.168E-03 0.108E-12 -.328E-03
   0.761E+01 0.166E-11 0.610E+01   -.782E+01 -.108E-14 -.639E+01   0.219E+00 0.000E+00 0.332E+00   0.274E-03 0.539E-13 0.211E-03
   -.708E+01 0.806E+00 -.574E+01   0.734E+01 -.966E+00 0.582E+01   -.258E+00 0.171E+00 -.702E-01   -.310E-03 0.390E-03 0.104E-02
   0.574E+01 0.806E+00 0.708E+01   -.582E+01 -.966E+00 -.734E+01   0.702E-01 0.171E+00 0.258E+00   -.104E-02 0.389E-03 0.309E-03
   0.524E+01 -.108E-12 -.524E+01   -.557E+01 0.753E-14 0.557E+01   0.315E+00 0.000E+00 -.315E+00   0.174E-03 -.618E-13 -.172E-03
   -.372E+01 -.198E-13 0.372E+01   0.340E+01 -.830E-14 -.340E+01   0.384E+00 0.000E+00 -.384E+00   -.127E-02 -.112E-12 0.127E-02
   0.841E+01 -.226E+02 -.300E+02   -.858E+01 0.223E+02 0.298E+02   0.147E+00 0.234E+00 0.122E+00   0.850E-03 0.387E-03 0.396E-03
   -.519E+01 -.303E+01 0.365E+01   0.538E+01 0.340E+01 -.334E+01   -.210E+00 -.405E+00 -.345E+00   0.322E-03 0.170E-02 0.359E-03
   -.516E+01 -.139E-12 -.583E+01   0.537E+01 -.366E-14 0.588E+01   -.237E+00 0.000E+00 -.481E-01   -.245E-03 -.130E-12 0.168E-02
   0.321E+01 -.578E-12 0.396E+01   -.301E+01 0.312E-14 -.361E+01   -.224E+00 0.000E+00 -.389E+00   0.179E-02 -.110E-12 -.370E-03
   0.273E+02 0.357E-11 -.273E+02   -.281E+02 0.227E-13 0.281E+02   0.848E+00 0.000E+00 -.848E+00   0.167E-01 -.906E-12 -.167E-01
 -----------------------------------------------------------------------------------------------
   -.499E+00 0.162E-11 0.499E+00   -.711E-14 0.315E-13 0.497E-13   0.484E+00 -.111E-15 -.484E+00   0.160E-01 -.876E-12 -.160E-01
 
 
 POSITION                                       TOTAL-FORCE (eV/Angst)
 -----------------------------------------------------------------------------------
      8.07327      8.07014      8.08298         0.038409      0.037863      0.024895
      2.05703      0.08367      2.05724         0.002825      0.048611      0.019903
      2.04751      2.02176      0.04258        -0.021755      0.000000     -0.029983
      0.03185      2.02176      2.04485        -0.034651      0.000000     -0.014785
      4.04984      0.02859      0.03332         0.011333     -0.024496     -0.012341
      6.03196      0.02859      2.01544         0.012341     -0.024496     -0.011333
      6.05913      2.02176      0.00615        -0.005522      0.000000      0.005522
      8.07327      4.06042      8.08298         0.038409     -0.037863      0.024895
      2.05703      3.95985      2.05724         0.002825     -0.048611      0.019903
      2.03056      6.06528      8.08569        -0.009726      0.000000      0.030959
      8.06468      6.06528      2.00654         0.033598      0.000000      0.021430
      4.04984      4.01493      0.03332         0.011333      0.024496     -0.012341
      6.03196      4.01493      2.01544         0.012341      0.024496     -0.011333
      6.07401      6.06528     -0.00873        -0.056480      0.000000      0.056480
      4.05374      6.06528      2.01154         0.008939      0.000000     -0.008939
      0.02715      0.03495      4.03986         0.002523     -0.011918      0.010069
      2.02542      0.03495      6.03813        -0.010069     -0.011918     -0.002523
      0.02079      2.02176      6.04449        -0.001454      0.000000      0.001454
      4.00804      0.08367      4.00825        -0.019903      0.048611     -0.002825
      6.06934      8.07014      6.07905        -0.024895      0.037863     -0.038409
      6.02270      2.02176      4.01777         0.029983      0.000000      0.021755
      4.02043      2.02176      6.03343         0.014785      0.000000      0.034651
      0.02715      4.00857      4.03986         0.002523      0.011918      0.010069
      2.02542      4.00857      6.03813        -0.010069      0.011918     -0.002523
      2.02150      6.06528      4.04378        -0.018260      0.000000      0.018260
     -0.01458      6.06528      6.07986         0.059145      0.000000     -0.059145
      4.00804      3.95985      4.00825        -0.019903     -0.048611     -0.002825
      6.06934      4.06042      6.07905        -0.024895     -0.037863     -0.038409
      6.06663      6.06528      4.03472        -0.030959      0.000000      0.009726
      4.05874      6.06528      6.08764        -0.021430      0.000000     -0.033598
      4.04206      2.02176      2.02322         0.028658      0.000000     -0.028658
 -----------------------------------------------------------------------------------
    total drift:                                0.000343      0.000000     -0.000352
 d Force = 0.1553069E-01[-0.234E-03, 0.313E-01]  d Energy = 0.1554369E-01-0.130E-04
 d Force =-0.3385684E+01[-0.360E+01,-0.317E+01]  d Ewald  =-0.3385317E+01-0.366E-03


--------------------------------------------------------------------------------------------------------


    POTLOK:  cpu time    0.16: real time    0.16


--------------------------------------------------------------------------------------------------------


  FORCES: max atom, RMS     0.083644    0.042685
  FORCE total and by dimension    0.237659    0.059145


--------------------------------------------------------------------------------------------------------


  
 reached required accuracy - stopping structural energy minimisation
     LOOP+:  cpu time    9.47: real time    9.49
    4ORBIT:  cpu time    0.00: real time    0.00

 total amount of memory used by VASP on root node  63028. kBytes
========================================================================

   base      :    30000. kBytes
   nonl-proj :     6689. kBytes
   fftplans  :     2983. kBytes
   grid      :    21626. kBytes
   one-center:      482. kBytes
   wavefun   :     1248. kBytes
 
  
  
 General timing and accounting informations for this job:
 ========================================================
  
                  Total CPU time used (sec):       76.578
                            User time (sec):       76.423
                          System time (sec):        0.155
                         Elapsed time (sec):       76.884
  
                   Maximum memory used (kb):           0.
                   Average memory used (kb):           0.
  
                          Minor page faults:        23486
                          Major page faults:           25
                 Voluntary context switches:         2247
