<?xml version="1.0" encoding="ISO-8859-1"?>
<modeling>
 <generator>
  <i name="program" type="string">vasp </i>
  <i name="version" type="string">5.2.2  </i>
  <i name="subversion" type="string">15Apr09 complex  parallel </i>
  <i name="platform" type="string">LinuxIFC </i>
  <i name="date" type="string">2017 01 11 </i>
  <i name="time" type="string">13:33:15 </i>
 </generator>
 <incar>
  <i type="string" name="PREC">accurate</i>
  <i type="int" name="IALGO">    48</i>
  <i type="int" name="IBRION">     2</i>
  <i name="EDIFFG">      0.05000000</i>
  <i type="int" name="NSW">   191</i>
  <i type="int" name="ISIF">     2</i>
  <i name="ENCUT">    300.00000000</i>
  <i name="NELECT">    101.00000000</i>
  <i type="int" name="ISMEAR">     1</i>
  <i name="SIGMA">      0.20000000</i>
  <i type="logical" name="LWAVE"> F  </i>
  <i type="logical" name="LCHARG"> F  </i>
  <i type="logical" name="LPEAD"> F  </i>
  <i type="logical" name="LCALCPOL"> F  </i>
  <i type="logical" name="LCALCEPS"> F  </i>
  <v name="EFIELD_PEAD">      0.00000000      0.00000000      0.00000000</v>
  <i type="logical" name="LEFG"> F  </i>
 </incar>
 <kpoints>
  <generation param="Monkhorst-Pack">
   <v type="int" name="divisions">       2        2        2 </v>
   <v name="usershift">      0.00000000       0.00000000       0.00000000 </v>
   <v name="genvec1">      0.50000000       0.00000000       0.00000000 </v>
   <v name="genvec2">      0.00000000       0.50000000       0.00000000 </v>
   <v name="genvec3">      0.00000000       0.00000000       0.50000000 </v>
   <v name="shift">      0.50000000       0.50000000       0.50000000 </v>
  </generation>
  <varray name="kpointlist" >
   <v>       0.25000000       0.25000000       0.25000000 </v>
   <v>      -0.25000000       0.25000000       0.25000000 </v>
  </varray>
  <varray name="weights" >
   <v>       0.50000000 </v>
   <v>       0.50000000 </v>
  </varray>
 </kpoints>
 <parameters>
  <separator name="general" >
   <i type="string" name="SYSTEM">unknown system</i>
   <i type="logical" name="LCOMPAT"> F  </i>
  </separator>
  <separator name="electronic" >
   <i type="string" name="PREC">accura</i>
   <i name="ENMAX">    300.00000000</i>
   <i name="ENAUG">    516.45600000</i>
   <i name="EDIFF">      0.00010000</i>
   <i type="int" name="IALGO">    48</i>
   <i type="int" name="IWAVPR">    11</i>
   <i type="int" name="NBANDS">    72</i>
   <i name="NELECT">    101.00000000</i>
   <separator name="electronic smearing" >
    <i type="int" name="ISMEAR">     1</i>
    <i name="SIGMA">      0.20000000</i>
   </separator>
   <separator name="electronic projectors" >
    <i type="logical" name="LREAL"> F  </i>
    <v name="ROPT">      0.00000000      0.00000000</v>
    <i type="int" name="LMAXPAW">  -100</i>
    <i type="int" name="LMAXMIX">     2</i>
   </separator>
   <separator name="electronic startup" >
    <i type="int" name="ISTART">     0</i>
    <i type="int" name="ICHARG">     2</i>
    <i type="int" name="INIWAV">     1</i>
   </separator>
   <separator name="electronic spin" >
    <i type="int" name="ISPIN">     1</i>
    <i type="logical" name="LNONCOLLINEAR"> F  </i>
    <v name="MAGMOM">      1.00000000      1.00000000      1.00000000      1.00000000      1.00000000      1.00000000      1.00000000      1.00000000      1.00000000      1.00000000      1.00000000      1.00000000      1.00000000      1.00000000      1.00000000      1.00000000      1.00000000      1.00000000      1.00000000      1.00000000
      1.00000000      1.00000000      1.00000000      1.00000000      1.00000000      1.00000000      1.00000000      1.00000000      1.00000000      1.00000000      1.00000000</v>
    <i name="NUPDOWN">     -1.00000000</i>
    <i type="logical" name="LSORBIT"> F  </i>
    <v name="SAXIS">      0.00000000      0.00000000      1.00000000</v>
    <i type="logical" name="LSPIRAL"> F  </i>
    <v name="QSPIRAL">      0.00000000      0.00000000      0.00000000</v>
    <i type="logical" name="LZEROZ"> F  </i>
   </separator>
   <separator name="electronic exchange-correlation" >
    <i type="logical" name="LASPH"> F  </i>
    <i type="logical" name="LMETAGGA"> F  </i>
   </separator>
   <separator name="electronic convergence" >
    <i type="int" name="NELM">    60</i>
    <i type="int" name="NELMDL">   -12</i>
    <i type="int" name="NELMIN">     2</i>
    <i name="ENINI">    300.00000000</i>
    <separator name="electronic convergence detail" >
     <i type="logical" name="LDIAG"> T  </i>
     <i name="WEIMIN">      0.00100000</i>
     <i name="EBREAK">      0.00000038</i>
     <i name="DEPER">      0.30000000</i>
     <i type="int" name="NRMM">     4</i>
     <i name="TIME">      0.40000000</i>
    </separator>
   </separator>
   <separator name="electronic mixer" >
    <i name="AMIX">      0.40000000</i>
    <i name="BMIX">      1.00000000</i>
    <i name="AMIN">      0.10000000</i>
    <i name="AMIX_MAG">      1.60000000</i>
    <i name="BMIX_MAG">      1.00000000</i>
    <separator name="electronic mixer details" >
     <i type="int" name="IMIX">     4</i>
     <i type="int" name="MAXMIX">   -45</i>
     <i name="WC">    100.00000000</i>
     <i type="int" name="INIMIX">     1</i>
     <i type="int" name="MIXPRE">     1</i>
     <i type="int" name="MREMOVE">     5</i>
    </separator>
   </separator>
   <separator name="electronic dipolcorrection" >
    <i type="logical" name="LDIPOL"> F  </i>
    <i type="logical" name="LMONO"> F  </i>
    <i type="int" name="IDIPOL">     0</i>
    <i name="EPSILON">      1.00000000</i>
    <v name="DIPOL">   -100.00000000   -100.00000000   -100.00000000</v>
    <i name="EFIELD">      0.00000000</i>
   </separator>
  </separator>
  <separator name="grids" >
   <i type="int" name="NGX">    48</i>
   <i type="int" name="NGY">    48</i>
   <i type="int" name="NGZ">    48</i>
   <i type="int" name="NGXF">    96</i>
   <i type="int" name="NGYF">    96</i>
   <i type="int" name="NGZF">    96</i>
   <i type="logical" name="ADDGRID"> F  </i>
  </separator>
  <separator name="ionic" >
   <i type="int" name="NSW">   191</i>
   <i type="int" name="IBRION">     2</i>
   <i type="int" name="ISIF">     2</i>
   <i name="PSTRESS">      0.00000000</i>
   <i name="EDIFFG">      0.05000000</i>
   <i type="int" name="NFREE">     1</i>
   <i name="POTIM">      0.50000000</i>
   <i name="SMASS">     -3.00000000</i>
  </separator>
  <separator name="ionic md" >
   <i name="TEBEG">      0.00010000</i>
   <i name="TEEND">      0.00010000</i>
   <i type="int" name="NBLOCK">     1</i>
   <i type="int" name="KBLOCK">   191</i>
   <i type="int" name="NPACO">   256</i>
   <i name="APACO">     16.00000000</i>
  </separator>
  <separator name="symmetry" >
   <i type="int" name="ISYM">     2</i>
   <i name="SYMPREC">      0.00001000</i>
  </separator>
  <separator name="dos" >
   <i type="logical" name="LORBIT"> F  </i>
   <v name="RWIGS">     -1.00000000     -1.00000000</v>
   <i type="int" name="NEDOS">   301</i>
   <i name="EMIN">     10.00000000</i>
   <i name="EMAX">    -10.00000000</i>
   <i name="EFERMI">      0.00000000</i>
  </separator>
  <separator name="writing" >
   <i type="int" name="NWRITE">     2</i>
   <i type="logical" name="LWAVE"> F  </i>
   <i type="logical" name="LCHARG"> F  </i>
   <i type="logical" name="LPARD"> F  </i>
   <i type="logical" name="LVTOT"> F  </i>
   <i type="logical" name="LELF"> F  </i>
   <i type="logical" name="LOPTICS"> F  </i>
   <v name="STM">      0.00000000      0.00000000      0.00000000      0.00000000      0.00000000</v>
  </separator>
  <separator name="performance" >
   <i type="int" name="NPAR">    12</i>
   <i type="int" name="NSIM">     4</i>
   <i type="int" name="NBLK">    32</i>
   <i type="logical" name="LPLANE"> T  </i>
   <i type="logical" name="LSCALAPACK"> F  </i>
   <i type="logical" name="LSCAAWARE"> F  </i>
   <i type="logical" name="LSCALU"> F  </i>
   <i type="logical" name="LASYNC"> F  </i>
  </separator>
  <separator name="miscellaneous" >
   <i type="int" name="IDIOT">     3</i>
   <i type="logical" name="LMUSIC"> F  </i>
   <v name="POMASS">     26.98200000     63.54600000</v>
   <i type="logical" name="LCORR"> T  </i>
  </separator>
  <i type="logical" name="LREAL_COMPAT"> F  </i>
  <i type="logical" name="GGA_COMPAT"> T  </i>
  <i type="logical" name="LBERRY"> F  </i>
  <i type="int" name="ICORELEVEL">     0</i>
  <i type="logical" name="LDAU"> F  </i>
  <i type="int" name="I_CONSTRAINED_M">     0</i>
  <separator name="electronic exchange-correlation" >
   <i type="string" name="GGA">--</i>
   <i type="int" name="VOSKOWN">     0</i>
   <i type="logical" name="LHFCALC"> F  </i>
   <i type="logical" name="LHFONE"> F  </i>
   <i type="logical" name="LRHFCALC"> F  </i>
   <i type="logical" name="LTHOMAS"> F  </i>
   <i type="logical" name="LMODELHF"> F  </i>
   <i name="ENCUTFOCK">      0.00000000</i>
   <i name="ENCUT4O">     -1.00000000</i>
   <i type="int" name="EXXOEP">     0</i>
   <i type="int" name="FOURORBIT">     0</i>
   <i name="AEXX">      0.00000000</i>
   <i name="HFALPHA">      0.00000000</i>
   <i name="ALDAX">      1.00000000</i>
   <i name="AGGAX">      1.00000000</i>
   <i name="ALDAC">      1.00000000</i>
   <i name="AGGAC">      1.00000000</i>
   <i type="int" name="NKREDX">     1</i>
   <i type="int" name="NKREDY">     1</i>
   <i type="int" name="NKREDZ">     1</i>
   <i type="logical" name="SHIFTRED"> F  </i>
   <i type="logical" name="ODDONLY"> F  </i>
   <i type="logical" name="EVENONLY"> F  </i>
   <i type="int" name="LMAXFOCK">     0</i>
   <i type="int" name="NMAXFOCKAE">     0</i>
   <i name="HFSCREEN">      0.00000000</i>
   <i name="HFSCREENC">      0.00000000</i>
  </separator>
  <separator name="model GW" >
   <i type="int" name="MODEL_GW">     0</i>
   <i name="MODEL_EPS0">     10.23666121</i>
   <i name="MODEL_ALPHA">      1.00000000</i>
  </separator>
  <separator name="linear response parameters" >
   <i type="logical" name="LEPSILON"> F  </i>
   <i type="logical" name="LRPA"> F  </i>
   <i type="logical" name="LNABLA"> F  </i>
   <i type="logical" name="LVEL"> F  </i>
   <i type="int" name="KINTER">     0</i>
   <i name="CSHIFT">      0.10000000</i>
   <i name="OMEGAMAX">     -1.00000000</i>
  </separator>
  <separator name="orbital magnetization" >
   <i type="logical" name="ORBITALMAG"> F  </i>
   <i type="logical" name="LMAGBLOCH"> F  </i>
   <i type="logical" name="LCHIMAG"> F  </i>
   <i type="logical" name="LGAUGE"> T  </i>
   <i type="int" name="MAGATOM">     0</i>
   <v name="MAGDIPOL">      0.00000000      0.00000000      0.00000000</v>
   <v name="AVECCONST">      0.00000000      0.00000000      0.00000000</v>
  </separator>
  <separator name="response functions" >
   <i type="logical" name="LRPA"> T  </i>
   <i type="logical" name="LTCTE"> F  </i>
   <i type="logical" name="LTETE"> F  </i>
   <i type="logical" name="L2ORDER"> F  </i>
   <i type="logical" name="LGWLF"> F  </i>
   <i name="ENCUTGW">    200.00000000</i>
   <i name="ENCUTGWSOFT">     -2.00000000</i>
   <i name="ENCUTLF">     -1.00000000</i>
   <i type="int" name="LMAXMP2">    -1</i>
   <i name="SCISSOR">      0.00000000</i>
   <i type="int" name="NOMEGA">     0</i>
   <i type="int" name="NOMEGAR">     0</i>
   <i type="int" name="NBANDSGW">    -1</i>
   <i type="int" name="NBANDSLF">    -1</i>
   <i type="int" name="NELM">     1</i>
   <i type="int" name="DIM">     3</i>
   <i type="int" name="ANTIRES">     0</i>
   <i type="logical" name="LUSEW"> F  </i>
   <i name="OMEGAMAX">    -30.00000000</i>
   <i name="OMEGATL">   -200.00000000</i>
   <i type="int" name="OMEGAGRID">     0</i>
   <i name="CSHIFT">     -0.10000000</i>
   <i type="logical" name="SELFENERGY"> F  </i>
   <i type="logical" name="LSPECTRAL"> F  </i>
   <i type="logical" name="ODDONLYGW"> F  </i>
   <i type="logical" name="EVENONLYGW"> F  </i>
   <i type="int" name="NKREDLFX">     1</i>
   <i type="int" name="NKREDLFY">     1</i>
   <i type="int" name="NKREDLFZ">     1</i>
   <i type="int" name="MAXMEM">  1024</i>
   <i type="int" name="TELESCOPE">     0</i>
  </separator>
 </parameters>
 <atominfo>
  <atoms>      31 </atoms>
  <types>       2 </types>
  <array name="atoms" >
   <dimension dim="1">ion</dimension>
   <field type="string">element</field>
   <field type="int">atomtype</field>
   <set>
    <rc><c>Al</c><c>   1</c></rc>
    <rc><c>Al</c><c>   1</c></rc>
    <rc><c>Al</c><c>   1</c></rc>
    <rc><c>Al</c><c>   1</c></rc>
    <rc><c>Al</c><c>   1</c></rc>
    <rc><c>Al</c><c>   1</c></rc>
    <rc><c>Al</c><c>   1</c></rc>
    <rc><c>Al</c><c>   1</c></rc>
    <rc><c>Al</c><c>   1</c></rc>
    <rc><c>Al</c><c>   1</c></rc>
    <rc><c>Al</c><c>   1</c></rc>
    <rc><c>Al</c><c>   1</c></rc>
    <rc><c>Al</c><c>   1</c></rc>
    <rc><c>Al</c><c>   1</c></rc>
    <rc><c>Al</c><c>   1</c></rc>
    <rc><c>Al</c><c>   1</c></rc>
    <rc><c>Al</c><c>   1</c></rc>
    <rc><c>Al</c><c>   1</c></rc>
    <rc><c>Al</c><c>   1</c></rc>
    <rc><c>Al</c><c>   1</c></rc>
    <rc><c>Al</c><c>   1</c></rc>
    <rc><c>Al</c><c>   1</c></rc>
    <rc><c>Al</c><c>   1</c></rc>
    <rc><c>Al</c><c>   1</c></rc>
    <rc><c>Al</c><c>   1</c></rc>
    <rc><c>Al</c><c>   1</c></rc>
    <rc><c>Al</c><c>   1</c></rc>
    <rc><c>Al</c><c>   1</c></rc>
    <rc><c>Al</c><c>   1</c></rc>
    <rc><c>Al</c><c>   1</c></rc>
    <rc><c>Cu</c><c>   2</c></rc>
   </set>
  </array>
  <array name="atomtypes" >
   <dimension dim="1">type</dimension>
   <field type="int">atomspertype</field>
   <field type="string">element</field>
   <field>mass</field>
   <field>valence</field>
   <field type="string">pseudopotential</field>
   <set>
    <rc><c>  30</c><c>Al</c><c>     26.98200000</c><c>      3.00000000</c><c> PAW_PBE Al 04Jan2001                   </c></rc>
    <rc><c>   1</c><c>Cu</c><c>     63.54600000</c><c>     11.00000000</c><c> PAW_PBE Cu 05Jan2001                   </c></rc>
   </set>
  </array>
 </atominfo>
 <structure name="initialpos" >
  <crystal>
   <varray name="basis" >
    <v>       8.08704000       0.00000000       0.00000000 </v>
    <v>       0.00000000       8.08704000       0.00000000 </v>
    <v>       0.00000000       0.00000000       8.08704000 </v>
   </varray>
   <i name="volume">    528.89416249 </i>
   <varray name="rec_basis" >
    <v>       0.12365464       0.00000000       0.00000000 </v>
    <v>       0.00000000       0.12365464       0.00000000 </v>
    <v>       0.00000000       0.00000000       0.12365464 </v>
   </varray>
  </crystal>
  <varray name="positions" >
   <v>       0.99896500       0.99181300       0.99593700 </v>
   <v>       0.24814800       0.99933800       0.24617400 </v>
   <v>       0.24823300       0.25000000       0.00296200 </v>
   <v>       0.00153600       0.25000000       0.24666100 </v>
   <v>       0.50153800       0.99987100       0.00111100 </v>
   <v>       0.74888900       0.99987100       0.24846200 </v>
   <v>       0.75430600       0.25000000       0.99569400 </v>
   <v>       0.99896500       0.50818700       0.99593700 </v>
   <v>       0.24814800       0.50066200       0.24617400 </v>
   <v>       0.24679100       0.75000000       0.99645600 </v>
   <v>       0.99767000       0.75000000       0.24616400 </v>
   <v>       0.50153800       0.50012900       0.00111100 </v>
   <v>       0.74888900       0.50012900       0.24846200 </v>
   <v>       0.75710700       0.75000000       0.99289300 </v>
   <v>       0.50054300       0.75000000       0.24945700 </v>
   <v>       0.99664400       0.99578100       0.50325700 </v>
   <v>       0.24674300       0.99578100       0.75335600 </v>
   <v>       0.99605500       0.25000000       0.75394500 </v>
   <v>       0.50382600       0.99933800       0.50185200 </v>
   <v>       0.75406300       0.99181300       0.75103500 </v>
   <v>       0.74703800       0.25000000       0.50176700 </v>
   <v>       0.50333900       0.25000000       0.74846400 </v>
   <v>       0.99664400       0.50421900       0.50325700 </v>
   <v>       0.24674300       0.50421900       0.75335600 </v>
   <v>       0.24952100       0.75000000       0.50047900 </v>
   <v>       0.99359200       0.75000000       0.75640800 </v>
   <v>       0.50382600       0.50066200       0.50185200 </v>
   <v>       0.75406300       0.50818700       0.75103500 </v>
   <v>       0.75354400       0.75000000       0.50320900 </v>
   <v>       0.50383600       0.75000000       0.75233000 </v>
   <v>       0.49925900       0.25000000       0.25074100 </v>
  </varray>
 </structure>
 <calculation>
  <scstep>
   <time name="diag">    0.30    0.30</time>
   <time name="diis">    0.70    0.70</time>
   <time name="orth">    0.02    0.02</time>
   <time name="total">    1.19    1.19</time>
   <energy>
    <i name="alphaZ">     15.76595319 </i>
    <i name="ewald">  -2790.52372845 </i>
    <i name="hartreedc">   -758.95539279 </i>
    <i name="XCdc">   -745.12303151 </i>
    <i name="pawpsdc">   2148.67993976 </i>
    <i name="pawaedc">  -1334.04649801 </i>
    <i name="eentropy">      0.02120695 </i>
    <i name="bandstr">    765.65290390 </i>
    <i name="atom">   2997.07640482 </i>
    <i name="e_fr_energy">    298.54775787 </i>
    <i name="e_wo_entrp">    298.52655092 </i>
    <i name="e_0_energy">    298.54068888 </i>
   </energy>
  </scstep>
  <scstep>
   <time name="diag">    0.30    0.30</time>
   <time name="diis">    0.70    0.70</time>
   <time name="orth">    0.02    0.02</time>
   <time name="total">    1.02    1.03</time>
   <energy>
    <i name="e_fr_energy">    -28.98064866 </i>
    <i name="e_wo_entrp">    -28.98607057 </i>
    <i name="e_0_energy">    -28.98245596 </i>
   </energy>
  </scstep>
  <scstep>
   <time name="diag">    0.30    0.30</time>
   <time name="diis">    0.70    0.70</time>
   <time name="orth">    0.02    0.02</time>
   <time name="total">    1.02    1.02</time>
   <energy>
    <i name="e_fr_energy">    -91.61046186 </i>
    <i name="e_wo_entrp">    -91.59532916 </i>
    <i name="e_0_energy">    -91.60541763 </i>
   </energy>
  </scstep>
  <scstep>
   <time name="diag">    0.30    0.30</time>
   <time name="diis">    0.70    0.70</time>
   <time name="orth">    0.02    0.02</time>
   <time name="total">    1.02    1.02</time>
   <energy>
    <i name="e_fr_energy">   -106.12391915 </i>
    <i name="e_wo_entrp">   -106.10102068 </i>
    <i name="e_0_energy">   -106.11628633 </i>
   </energy>
  </scstep>
  <scstep>
   <time name="diag">    0.30    0.30</time>
   <time name="diis">    0.70    0.70</time>
   <time name="orth">    0.02    0.02</time>
   <time name="total">    1.02    1.02</time>
   <energy>
    <i name="e_fr_energy">   -113.35098950 </i>
    <i name="e_wo_entrp">   -113.32021387 </i>
    <i name="e_0_energy">   -113.34073096 </i>
   </energy>
  </scstep>
  <scstep>
   <time name="diag">    0.30    0.30</time>
   <time name="diis">    0.69    0.69</time>
   <time name="orth">    0.02    0.02</time>
   <time name="total">    1.01    1.01</time>
   <energy>
    <i name="e_fr_energy">   -116.55112016 </i>
    <i name="e_wo_entrp">   -116.54291782 </i>
    <i name="e_0_energy">   -116.54838605 </i>
   </energy>
  </scstep>
  <scstep>
   <time name="diag">    0.30    0.30</time>
   <time name="diis">    0.69    0.69</time>
   <time name="orth">    0.02    0.02</time>
   <time name="total">    1.01    1.01</time>
   <energy>
    <i name="e_fr_energy">   -118.05014685 </i>
    <i name="e_wo_entrp">   -118.06942474 </i>
    <i name="e_0_energy">   -118.05657282 </i>
   </energy>
  </scstep>
  <scstep>
   <time name="diag">    0.30    0.30</time>
   <time name="diis">    0.69    0.69</time>
   <time name="orth">    0.02    0.02</time>
   <time name="total">    1.01    1.01</time>
   <energy>
    <i name="e_fr_energy">   -118.83172032 </i>
    <i name="e_wo_entrp">   -118.85907610 </i>
    <i name="e_0_energy">   -118.84083892 </i>
   </energy>
  </scstep>
  <scstep>
   <time name="diag">    0.30    0.30</time>
   <time name="diis">    1.67    1.67</time>
   <time name="orth">    0.02    0.02</time>
   <time name="total">    1.99    1.99</time>
   <energy>
    <i name="e_fr_energy">   -119.63902632 </i>
    <i name="e_wo_entrp">   -119.67285883 </i>
    <i name="e_0_energy">   -119.65030382 </i>
   </energy>
  </scstep>
  <scstep>
   <time name="diag">    0.30    0.30</time>
   <time name="diis">    1.36    1.36</time>
   <time name="orth">    0.02    0.02</time>
   <time name="total">    1.68    1.68</time>
   <energy>
    <i name="e_fr_energy">   -119.71625869 </i>
    <i name="e_wo_entrp">   -119.74541121 </i>
    <i name="e_0_energy">   -119.72597619 </i>
   </energy>
  </scstep>
  <scstep>
   <time name="diag">    0.30    0.30</time>
   <time name="diis">    1.12    1.12</time>
   <time name="orth">    0.02    0.02</time>
   <time name="total">    1.44    1.44</time>
   <energy>
    <i name="e_fr_energy">   -119.72046959 </i>
    <i name="e_wo_entrp">   -119.74935073 </i>
    <i name="e_0_energy">   -119.73009664 </i>
   </energy>
  </scstep>
  <scstep>
   <time name="diag">    0.30    0.30</time>
   <time name="diis">    0.99    0.99</time>
   <time name="orth">    0.02    0.02</time>
   <time name="total">    1.51    1.51</time>
   <energy>
    <i name="e_fr_energy">   -119.72056882 </i>
    <i name="e_wo_entrp">   -119.74966882 </i>
    <i name="e_0_energy">   -119.73026882 </i>
   </energy>
  </scstep>
  <scstep>
   <time name="diag">    0.30    0.30</time>
   <time name="diis">    1.82    1.82</time>
   <time name="orth">    0.02    0.02</time>
   <time name="total">    2.52    2.52</time>
   <energy>
    <i name="e_fr_energy">   -156.38677791 </i>
    <i name="e_wo_entrp">   -156.36280521 </i>
    <i name="e_0_energy">   -156.37878701 </i>
   </energy>
  </scstep>
  <scstep>
   <time name="diag">    0.30    0.30</time>
   <time name="diis">    1.23    1.23</time>
   <time name="orth">    0.02    0.02</time>
   <time name="total">    1.92    1.92</time>
   <energy>
    <i name="e_fr_energy">   -123.49471184 </i>
    <i name="e_wo_entrp">   -123.47462353 </i>
    <i name="e_0_energy">   -123.48801574 </i>
   </energy>
  </scstep>
  <scstep>
   <time name="diag">    0.30    0.30</time>
   <time name="diis">    1.23    1.23</time>
   <time name="orth">    0.02    0.02</time>
   <time name="total">    1.91    1.91</time>
   <energy>
    <i name="e_fr_energy">   -114.79010591 </i>
    <i name="e_wo_entrp">   -114.79775301 </i>
    <i name="e_0_energy">   -114.79265494 </i>
   </energy>
  </scstep>
  <scstep>
   <time name="diag">    0.31    0.31</time>
   <time name="diis">    1.28    1.29</time>
   <time name="orth">    0.02    0.02</time>
   <time name="total">    1.97    1.98</time>
   <energy>
    <i name="e_fr_energy">   -114.88677176 </i>
    <i name="e_wo_entrp">   -114.89254277 </i>
    <i name="e_0_energy">   -114.88869543 </i>
   </energy>
  </scstep>
  <scstep>
   <time name="diag">    0.30    0.30</time>
   <time name="diis">    1.35    1.35</time>
   <time name="orth">    0.02    0.02</time>
   <time name="total">    2.03    2.03</time>
   <energy>
    <i name="e_fr_energy">   -114.86528502 </i>
    <i name="e_wo_entrp">   -114.87094408 </i>
    <i name="e_0_energy">   -114.86717137 </i>
   </energy>
  </scstep>
  <scstep>
   <time name="diag">    0.30    0.30</time>
   <time name="diis">    1.26    1.27</time>
   <time name="orth">    0.02    0.02</time>
   <time name="total">    1.95    1.96</time>
   <energy>
    <i name="e_fr_energy">   -114.88485866 </i>
    <i name="e_wo_entrp">   -114.88952605 </i>
    <i name="e_0_energy">   -114.88641446 </i>
   </energy>
  </scstep>
  <scstep>
   <time name="diag">    0.30    0.30</time>
   <time name="diis">    1.22    1.23</time>
   <time name="orth">    0.02    0.02</time>
   <time name="total">    1.90    1.91</time>
   <energy>
    <i name="e_fr_energy">   -114.87247372 </i>
    <i name="e_wo_entrp">   -114.87855674 </i>
    <i name="e_0_energy">   -114.87450139 </i>
   </energy>
  </scstep>
  <scstep>
   <time name="diag">    0.30    0.30</time>
   <time name="diis">    1.20    1.20</time>
   <time name="orth">    0.02    0.02</time>
   <time name="total">    1.89    1.89</time>
   <energy>
    <i name="e_fr_energy">   -114.86266133 </i>
    <i name="e_wo_entrp">   -114.86859258 </i>
    <i name="e_0_energy">   -114.86463841 </i>
   </energy>
  </scstep>
  <scstep>
   <time name="diag">    0.30    0.30</time>
   <time name="diis">    1.19    1.19</time>
   <time name="orth">    0.02    0.02</time>
   <time name="total">    1.86    1.86</time>
   <energy>
    <i name="e_fr_energy">   -114.86103412 </i>
    <i name="e_wo_entrp">   -114.86680287 </i>
    <i name="e_0_energy">   -114.86295704 </i>
   </energy>
  </scstep>
  <scstep>
   <time name="diag">    0.30    0.30</time>
   <time name="diis">    0.87    0.87</time>
   <time name="orth">    0.02    0.02</time>
   <time name="total">    1.35    1.36</time>
   <energy>
    <i name="alphaZ">     15.76595319 </i>
    <i name="ewald">  -2790.52372845 </i>
    <i name="hartreedc">   -731.13483256 </i>
    <i name="XCdc">   -742.90151537 </i>
    <i name="pawpsdc">   2148.60380137 </i>
    <i name="pawaedc">  -1334.62954989 </i>
    <i name="eentropy">      0.00573023 </i>
    <i name="bandstr">    322.87668496 </i>
    <i name="atom">   2997.07640482 </i>
    <i name="e_fr_energy">   -114.86105170 </i>
    <i name="e_wo_entrp">   -114.86678193 </i>
    <i name="e_0_energy">   -114.86296178 </i>
   </energy>
  </scstep>
  <structure>
   <crystal>
    <varray name="basis" >
     <v>       8.08704000       0.00000000       0.00000000 </v>
     <v>       0.00000000       8.08704000       0.00000000 </v>
     <v>       0.00000000       0.00000000       8.08704000 </v>
    </varray>
    <i name="volume">    528.89416249 </i>
    <varray name="rec_basis" >
     <v>       0.12365464       0.00000000       0.00000000 </v>
     <v>       0.00000000       0.12365464       0.00000000 </v>
     <v>       0.00000000       0.00000000       0.12365464 </v>
    </varray>
   </crystal>
   <varray name="positions" >
    <v>       0.99896500       0.99181300       0.99593700 </v>
    <v>       0.24814800       0.99933800       0.24617400 </v>
    <v>       0.24823300       0.25000000       0.00296200 </v>
    <v>       0.00153600       0.25000000       0.24666100 </v>
    <v>       0.50153800       0.99987100       0.00111100 </v>
    <v>       0.74888900       0.99987100       0.24846200 </v>
    <v>       0.75430600       0.25000000       0.99569400 </v>
    <v>       0.99896500       0.50818700       0.99593700 </v>
    <v>       0.24814800       0.50066200       0.24617400 </v>
    <v>       0.24679100       0.75000000       0.99645600 </v>
    <v>       0.99767000       0.75000000       0.24616400 </v>
    <v>       0.50153800       0.50012900       0.00111100 </v>
    <v>       0.74888900       0.50012900       0.24846200 </v>
    <v>       0.75710700       0.75000000       0.99289300 </v>
    <v>       0.50054300       0.75000000       0.24945700 </v>
    <v>       0.99664400       0.99578100       0.50325700 </v>
    <v>       0.24674300       0.99578100       0.75335600 </v>
    <v>       0.99605500       0.25000000       0.75394500 </v>
    <v>       0.50382600       0.99933800       0.50185200 </v>
    <v>       0.75406300       0.99181300       0.75103500 </v>
    <v>       0.74703800       0.25000000       0.50176700 </v>
    <v>       0.50333900       0.25000000       0.74846400 </v>
    <v>       0.99664400       0.50421900       0.50325700 </v>
    <v>       0.24674300       0.50421900       0.75335600 </v>
    <v>       0.24952100       0.75000000       0.50047900 </v>
    <v>       0.99359200       0.75000000       0.75640800 </v>
    <v>       0.50382600       0.50066200       0.50185200 </v>
    <v>       0.75406300       0.50818700       0.75103500 </v>
    <v>       0.75354400       0.75000000       0.50320900 </v>
    <v>       0.50383600       0.75000000       0.75233000 </v>
    <v>       0.49925900       0.25000000       0.25074100 </v>
   </varray>
  </structure>
  <varray name="forces" >
   <v>      -0.07133404       0.35488229       0.21006540 </v>
   <v>       0.21429891       0.34351148       0.31759428 </v>
   <v>       0.26078741       0.00000000       0.00522749 </v>
   <v>      -0.00367634       0.00000000       0.28566514 </v>
   <v>       0.05648289       0.15881294       0.15377898 </v>
   <v>      -0.15377898       0.15881294      -0.05648289 </v>
   <v>      -0.24673321       0.00000000       0.24673321 </v>
   <v>      -0.07133404      -0.35488229       0.21006540 </v>
   <v>       0.21429891      -0.34351148       0.31759428 </v>
   <v>       0.30945653       0.00000000       0.12135932 </v>
   <v>      -0.06338455       0.00000000       0.15525775 </v>
   <v>       0.05648289      -0.15881294       0.15377898 </v>
   <v>      -0.15377898      -0.15881294      -0.05648289 </v>
   <v>      -0.48304897       0.00000000       0.48304897 </v>
   <v>       0.13521045       0.00000000      -0.13521045 </v>
   <v>       0.31052535       0.36298068      -0.16396136 </v>
   <v>       0.16396136       0.36298068      -0.31052535 </v>
   <v>       0.30392755       0.00000000      -0.30392755 </v>
   <v>      -0.31759428       0.34351148      -0.21429891 </v>
   <v>      -0.21006540       0.35488229       0.07133404 </v>
   <v>      -0.00522749       0.00000000      -0.26078741 </v>
   <v>      -0.28566514       0.00000000       0.00367634 </v>
   <v>       0.31052535      -0.36298068      -0.16396136 </v>
   <v>       0.16396136      -0.36298068      -0.31052535 </v>
   <v>      -0.02417051       0.00000000       0.02417051 </v>
   <v>       0.36626539       0.00000000      -0.36626539 </v>
   <v>      -0.31759428      -0.34351148      -0.21429891 </v>
   <v>      -0.21006540      -0.35488229       0.07133404 </v>
   <v>      -0.12135932       0.00000000      -0.30945653 </v>
   <v>      -0.15525775       0.00000000       0.06338455 </v>
   <v>       0.02788433       0.00000000      -0.02788433 </v>
  </varray>
  <varray name="stress" >
   <v>     -14.67993752       0.00000000      -6.25462240 </v>
   <v>       0.00000000     -11.94249857       0.00000000 </v>
   <v>      -6.25462240       0.00000000     -14.67993752 </v>
  </varray>
  <energy>
   <i name="e_fr_energy">   -114.86105170 </i>
   <i name="e_wo_entrp">   -114.86296178 </i>
   <i name="e_0_energy">      0.00573023 </i>
  </energy>
  <time name="totalsc">   36.64   36.71</time>
 </calculation>
 <calculation>
  <scstep>
   <time name="diag">    0.30    0.30</time>
   <time name="diis">    1.22    1.22</time>
   <time name="orth">    0.02    0.02</time>
   <time name="total">    1.89    1.90</time>
   <energy>
    <i name="alphaZ">     15.76595319 </i>
    <i name="ewald">  -2787.74102528 </i>
    <i name="hartreedc">   -734.53945218 </i>
    <i name="XCdc">   -742.95653467 </i>
    <i name="pawpsdc">   2148.58818870 </i>
    <i name="pawaedc">  -1334.60959773 </i>
    <i name="eentropy">     -0.00458354 </i>
    <i name="bandstr">    323.36527213 </i>
    <i name="atom">   2997.07640482 </i>
    <i name="e_fr_energy">   -115.05537457 </i>
    <i name="e_wo_entrp">   -115.05079102 </i>
    <i name="e_0_energy">   -115.05384672 </i>
   </energy>
  </scstep>
  <scstep>
   <time name="diag">    0.30    0.30</time>
   <time name="diis">    1.25    1.25</time>
   <time name="orth">    0.02    0.02</time>
   <time name="total">    1.93    1.93</time>
   <energy>
    <i name="e_fr_energy">   -115.04930473 </i>
    <i name="e_wo_entrp">   -115.04718335 </i>
    <i name="e_0_energy">   -115.04859760 </i>
   </energy>
  </scstep>
  <scstep>
   <time name="diag">    0.30    0.30</time>
   <time name="diis">    1.31    1.31</time>
   <time name="orth">    0.02    0.02</time>
   <time name="total">    1.99    1.99</time>
   <energy>
    <i name="e_fr_energy">   -115.04904913 </i>
    <i name="e_wo_entrp">   -115.04698770 </i>
    <i name="e_0_energy">   -115.04836199 </i>
   </energy>
  </scstep>
  <scstep>
   <time name="diag">    0.30    0.30</time>
   <time name="diis">    1.03    1.03</time>
   <time name="orth">    0.02    0.02</time>
   <time name="total">    1.52    1.52</time>
   <energy>
    <i name="alphaZ">     15.76595319 </i>
    <i name="ewald">  -2787.74102528 </i>
    <i name="hartreedc">   -734.39436941 </i>
    <i name="XCdc">   -742.98544248 </i>
    <i name="pawpsdc">   2149.36749477 </i>
    <i name="pawaedc">  -1335.41467067 </i>
    <i name="eentropy">     -0.00200514 </i>
    <i name="bandstr">    323.27863666 </i>
    <i name="atom">   2997.07640482 </i>
    <i name="e_fr_energy">   -115.04902353 </i>
    <i name="e_wo_entrp">   -115.04701840 </i>
    <i name="e_0_energy">   -115.04835516 </i>
   </energy>
  </scstep>
  <structure>
   <crystal>
    <varray name="basis" >
     <v>       8.08704000       0.00000000       0.00000000 </v>
     <v>       0.00000000       8.08704000       0.00000000 </v>
     <v>       0.00000000       0.00000000       8.08704000 </v>
    </varray>
    <i name="volume">    528.89416249 </i>
    <varray name="rec_basis" >
     <v>       0.12365464       0.00000000       0.00000000 </v>
     <v>       0.00000000       0.12365464       0.00000000 </v>
     <v>       0.00000000       0.00000000       0.12365464 </v>
    </varray>
   </crystal>
   <varray name="positions" >
    <v>       0.99853946       0.99393002       0.99719013 </v>
    <v>       0.24942638       0.00138719       0.24806859 </v>
    <v>       0.24978871       0.25000000       0.00299318 </v>
    <v>       0.00151407       0.25000000       0.24836511 </v>
    <v>       0.50187494       0.00081839       0.00202836 </v>
    <v>       0.74797164       0.00081839       0.24812506 </v>
    <v>       0.75283413       0.25000000       0.99716587 </v>
    <v>       0.99853946       0.50606998       0.99719013 </v>
    <v>       0.24942638       0.49861281       0.24806859 </v>
    <v>       0.24863704       0.75000000       0.99717996 </v>
    <v>       0.99729188       0.75000000       0.24709018 </v>
    <v>       0.50187494       0.49918161       0.00202836 </v>
    <v>       0.74797164       0.49918161       0.24812506 </v>
    <v>       0.75422541       0.75000000       0.99577459 </v>
    <v>       0.50134959       0.75000000       0.24865041 </v>
    <v>       0.99849642       0.99794634       0.50227890 </v>
    <v>       0.24772110       0.99794634       0.75150358 </v>
    <v>       0.99786806       0.25000000       0.75213194 </v>
    <v>       0.50193141       0.00138719       0.50057362 </v>
    <v>       0.75280987       0.99393002       0.75146054 </v>
    <v>       0.74700682       0.25000000       0.50021129 </v>
    <v>       0.50163489       0.25000000       0.74848593 </v>
    <v>       0.99849642       0.50205366       0.50227890 </v>
    <v>       0.24772110       0.50205366       0.75150358 </v>
    <v>       0.24937681       0.75000000       0.50062319 </v>
    <v>       0.99577693       0.75000000       0.75422307 </v>
    <v>       0.50193141       0.49861281       0.50057362 </v>
    <v>       0.75280987       0.50606998       0.75146054 </v>
    <v>       0.75282004       0.75000000       0.50136296 </v>
    <v>       0.50290982       0.75000000       0.75270812 </v>
    <v>       0.49942534       0.25000000       0.25057466 </v>
   </varray>
  </structure>
  <varray name="forces" >
   <v>      -0.03701950       0.21557243       0.12892694 </v>
   <v>       0.17263036       0.29240237       0.24627910 </v>
   <v>       0.17489243       0.00000000       0.03456111 </v>
   <v>       0.03550868       0.00000000       0.20861574 </v>
   <v>       0.01382127       0.11228619       0.10095261 </v>
   <v>      -0.10095261       0.11228619      -0.01382127 </v>
   <v>      -0.16368084       0.00000000       0.16368084 </v>
   <v>      -0.03701950      -0.21557243       0.12892694 </v>
   <v>       0.17263036      -0.29240237       0.24627910 </v>
   <v>       0.18173989       0.00000000       0.08813204 </v>
   <v>      -0.03513001       0.00000000       0.09022835 </v>
   <v>       0.01382127      -0.11228619       0.10095261 </v>
   <v>      -0.10095261      -0.11228619      -0.01382127 </v>
   <v>      -0.26493277       0.00000000       0.26493277 </v>
   <v>       0.07401266       0.00000000      -0.07401266 </v>
   <v>       0.21336157       0.26503942      -0.11789128 </v>
   <v>       0.11789128       0.26503942      -0.21336157 </v>
   <v>       0.21004270       0.00000000      -0.21004270 </v>
   <v>      -0.24627910       0.29240237      -0.17263036 </v>
   <v>      -0.12892694       0.21557243       0.03701950 </v>
   <v>      -0.03456111       0.00000000      -0.17489243 </v>
   <v>      -0.20861574       0.00000000      -0.03550868 </v>
   <v>       0.21336157      -0.26503942      -0.11789128 </v>
   <v>       0.11789128      -0.26503942      -0.21336157 </v>
   <v>      -0.01180530       0.00000000       0.01180530 </v>
   <v>       0.19393208       0.00000000      -0.19393208 </v>
   <v>      -0.24627910      -0.29240237      -0.17263036 </v>
   <v>      -0.12892694      -0.21557243       0.03701950 </v>
   <v>      -0.08813204       0.00000000      -0.18173989 </v>
   <v>      -0.09022835       0.00000000       0.03513001 </v>
   <v>       0.01790506       0.00000000      -0.01790506 </v>
  </varray>
  <varray name="stress" >
   <v>     -17.85542253       0.00000000      -5.61591316 </v>
   <v>       0.00000000     -14.96862804       0.00000000 </v>
   <v>      -5.61591316       0.00000000     -17.85542253 </v>
  </varray>
  <energy>
   <i name="e_fr_energy">   -115.04902353 </i>
   <i name="e_wo_entrp">   -115.04835516 </i>
   <i name="e_0_energy">     -0.00200514 </i>
  </energy>
  <time name="totalsc">    9.75    9.77</time>
 </calculation>
 <calculation>
  <scstep>
   <time name="diag">    0.30    0.30</time>
   <time name="diis">    1.26    1.26</time>
   <time name="orth">    0.02    0.02</time>
   <time name="total">    1.94    1.95</time>
   <energy>
    <i name="alphaZ">     15.76595319 </i>
    <i name="ewald">  -2778.95792355 </i>
    <i name="hartreedc">   -743.54429134 </i>
    <i name="XCdc">   -743.07497731 </i>
    <i name="pawpsdc">   2149.34050041 </i>
    <i name="pawaedc">  -1335.36479722 </i>
    <i name="eentropy">     -0.02518155 </i>
    <i name="bandstr">    323.53597697 </i>
    <i name="atom">   2997.07640482 </i>
    <i name="e_fr_energy">   -115.24833558 </i>
    <i name="e_wo_entrp">   -115.22315402 </i>
    <i name="e_0_energy">   -115.23994173 </i>
   </energy>
  </scstep>
  <scstep>
   <time name="diag">    0.30    0.30</time>
   <time name="diis">    1.28    1.28</time>
   <time name="orth">    0.02    0.02</time>
   <time name="total">    1.96    1.96</time>
   <energy>
    <i name="e_fr_energy">   -115.22083758 </i>
    <i name="e_wo_entrp">   -115.20055231 </i>
    <i name="e_0_energy">   -115.21407582 </i>
   </energy>
  </scstep>
  <scstep>
   <time name="diag">    0.30    0.30</time>
   <time name="diis">    1.41    1.41</time>
   <time name="orth">    0.02    0.02</time>
   <time name="total">    2.10    2.10</time>
   <energy>
    <i name="e_fr_energy">   -115.22015886 </i>
    <i name="e_wo_entrp">   -115.19934727 </i>
    <i name="e_0_energy">   -115.21322166 </i>
   </energy>
  </scstep>
  <scstep>
   <time name="diag">    0.30    0.30</time>
   <time name="diis">    1.25    1.25</time>
   <time name="orth">    0.02    0.02</time>
   <time name="total">    1.93    1.93</time>
   <energy>
    <i name="e_fr_energy">   -115.21968151 </i>
    <i name="e_wo_entrp">   -115.19906637 </i>
    <i name="e_0_energy">   -115.21280979 </i>
   </energy>
  </scstep>
  <scstep>
   <time name="diag">    0.30    0.30</time>
   <time name="diis">    1.08    1.08</time>
   <time name="orth">    0.02    0.02</time>
   <time name="total">    1.57    1.57</time>
   <energy>
    <i name="alphaZ">     15.76595319 </i>
    <i name="ewald">  -2778.95792355 </i>
    <i name="hartreedc">   -743.27104665 </i>
    <i name="XCdc">   -743.13505064 </i>
    <i name="pawpsdc">   2151.42669852 </i>
    <i name="pawaedc">  -1337.47930899 </i>
    <i name="eentropy">     -0.02088074 </i>
    <i name="bandstr">    323.37557212 </i>
    <i name="atom">   2997.07640482 </i>
    <i name="e_fr_energy">   -115.21958192 </i>
    <i name="e_wo_entrp">   -115.19870118 </i>
    <i name="e_0_energy">   -115.21262168 </i>
   </energy>
  </scstep>
  <structure>
   <crystal>
    <varray name="basis" >
     <v>       8.08704000       0.00000000       0.00000000 </v>
     <v>       0.00000000       8.08704000       0.00000000 </v>
     <v>       0.00000000       0.00000000       8.08704000 </v>
    </varray>
    <i name="volume">    528.89416249 </i>
    <varray name="rec_basis" >
     <v>       0.12365464       0.00000000       0.00000000 </v>
     <v>       0.00000000       0.12365464       0.00000000 </v>
     <v>       0.00000000       0.00000000       0.12365464 </v>
    </varray>
   </crystal>
   <varray name="positions" >
    <v>       0.99763776       0.99841593       0.99984547 </v>
    <v>       0.25213524       0.00572936       0.25208315 </v>
    <v>       0.25308520       0.25000000       0.00305926 </v>
    <v>       0.00146760       0.25000000       0.25197608 </v>
    <v>       0.50258892       0.00282587       0.00397221 </v>
    <v>       0.74602779       0.00282587       0.24741108 </v>
    <v>       0.74971529       0.25000000       0.00028471 </v>
    <v>       0.99763776       0.50158407       0.99984547 </v>
    <v>       0.25213524       0.49427064       0.25208315 </v>
    <v>       0.25254874       0.75000000       0.99871401 </v>
    <v>       0.99649067       0.75000000       0.24905272 </v>
    <v>       0.50258892       0.49717413       0.00397221 </v>
    <v>       0.74602779       0.49717413       0.24741108 </v>
    <v>       0.74811941       0.75000000       0.00188059 </v>
    <v>       0.50305872       0.75000000       0.24694128 </v>
    <v>       0.00242163       0.00253461       0.50020634 </v>
    <v>       0.24979366       0.00253461       0.74757837 </v>
    <v>       0.00170987       0.25000000       0.74829013 </v>
    <v>       0.49791685       0.00572936       0.49786476 </v>
    <v>       0.75015453       0.99841593       0.75236224 </v>
    <v>       0.74694074       0.25000000       0.49691480 </v>
    <v>       0.49802392       0.25000000       0.74853240 </v>
    <v>       0.00242163       0.49746539       0.50020634 </v>
    <v>       0.24979366       0.49746539       0.74757837 </v>
    <v>       0.24907128       0.75000000       0.50092872 </v>
    <v>       0.00040672       0.75000000       0.74959328 </v>
    <v>       0.49791685       0.49427064       0.49786476 </v>
    <v>       0.75015453       0.50158407       0.75236224 </v>
    <v>       0.75128599       0.75000000       0.49745126 </v>
    <v>       0.50094728       0.75000000       0.75350933 </v>
    <v>       0.49977782       0.25000000       0.25022218 </v>
   </varray>
  </structure>
  <varray name="forces" >
   <v>       0.03189082      -0.03695136      -0.02397183 </v>
   <v>       0.08858814       0.18791468       0.08769931 </v>
   <v>      -0.00655132       0.00000000       0.09640917 </v>
   <v>       0.10839893       0.00000000       0.02657370 </v>
   <v>      -0.08153018       0.02444147       0.00005849 </v>
   <v>      -0.00005849       0.02444147       0.08153018 </v>
   <v>      -0.01055836       0.00000000       0.01055836 </v>
   <v>       0.03189082       0.03695136      -0.02397183 </v>
   <v>       0.08858814      -0.18791468       0.08769931 </v>
   <v>      -0.07692150       0.00000000       0.04395715 </v>
   <v>       0.03525368       0.00000000      -0.04744269 </v>
   <v>      -0.08153018      -0.02444147       0.00005849 </v>
   <v>      -0.00005849      -0.02444147       0.08153018 </v>
   <v>       0.14982362       0.00000000      -0.14982362 </v>
   <v>      -0.08425972       0.00000000       0.08425972 </v>
   <v>       0.02800895       0.06311029      -0.02203904 </v>
   <v>       0.02203904       0.06311029      -0.02800895 </v>
   <v>       0.02502701       0.00000000      -0.02502701 </v>
   <v>      -0.08769931       0.18791468      -0.08858814 </v>
   <v>       0.02397183      -0.03695136      -0.03189082 </v>
   <v>      -0.09640917       0.00000000       0.00655132 </v>
   <v>      -0.02657370       0.00000000      -0.10839893 </v>
   <v>       0.02800895      -0.06311029      -0.02203904 </v>
   <v>       0.02203904      -0.06311029      -0.02800895 </v>
   <v>       0.04030705       0.00000000      -0.04030705 </v>
   <v>      -0.11210397       0.00000000       0.11210397 </v>
   <v>      -0.08769931      -0.18791468      -0.08858814 </v>
   <v>       0.02397183       0.03695136      -0.03189082 </v>
   <v>      -0.04395715       0.00000000       0.07692150 </v>
   <v>       0.04744269       0.00000000      -0.03525368 </v>
   <v>       0.00066032       0.00000000      -0.00066032 </v>
  </varray>
  <varray name="stress" >
   <v>     -17.18404714       0.00000000      -4.13020150 </v>
   <v>       0.00000000     -16.46646405       0.00000000 </v>
   <v>      -4.13020150       0.00000000     -17.18404714 </v>
  </varray>
  <energy>
   <i name="e_fr_energy">   -115.21958192 </i>
   <i name="e_wo_entrp">   -115.21262168 </i>
   <i name="e_0_energy">     -0.02088074 </i>
  </energy>
  <time name="totalsc">   11.91   11.95</time>
 </calculation>
 <calculation>
  <scstep>
   <time name="diag">    0.30    0.30</time>
   <time name="diis">    1.26    1.27</time>
   <time name="orth">    0.02    0.02</time>
   <time name="total">    1.95    1.95</time>
   <energy>
    <i name="alphaZ">     15.76595319 </i>
    <i name="ewald">  -2777.15087350 </i>
    <i name="hartreedc">   -745.07088516 </i>
    <i name="XCdc">   -743.15127092 </i>
    <i name="pawpsdc">   2151.62752421 </i>
    <i name="pawaedc">  -1337.69667452 </i>
    <i name="eentropy">     -0.02041229 </i>
    <i name="bandstr">    323.37540168 </i>
    <i name="atom">   2997.07640482 </i>
    <i name="e_fr_energy">   -115.24483248 </i>
    <i name="e_wo_entrp">   -115.22442019 </i>
    <i name="e_0_energy">   -115.23802839 </i>
   </energy>
  </scstep>
  <scstep>
   <time name="diag">    0.30    0.30</time>
   <time name="diis">    1.24    1.24</time>
   <time name="orth">    0.02    0.02</time>
   <time name="total">    1.92    1.93</time>
   <energy>
    <i name="e_fr_energy">   -115.24372795 </i>
    <i name="e_wo_entrp">   -115.22378349 </i>
    <i name="e_0_energy">   -115.23707980 </i>
   </energy>
  </scstep>
  <scstep>
   <time name="diag">    0.30    0.30</time>
   <time name="diis">    1.30    1.30</time>
   <time name="orth">    0.02    0.02</time>
   <time name="total">    1.78    1.78</time>
   <energy>
    <i name="alphaZ">     15.76595319 </i>
    <i name="ewald">  -2777.15087350 </i>
    <i name="hartreedc">   -744.97439913 </i>
    <i name="XCdc">   -743.16243522 </i>
    <i name="pawpsdc">   2151.99716951 </i>
    <i name="pawaedc">  -1338.05210397 </i>
    <i name="eentropy">     -0.02007015 </i>
    <i name="bandstr">    323.27670305 </i>
    <i name="atom">   2997.07640482 </i>
    <i name="e_fr_energy">   -115.24365139 </i>
    <i name="e_wo_entrp">   -115.22358125 </i>
    <i name="e_0_energy">   -115.23696134 </i>
   </energy>
  </scstep>
  <structure>
   <crystal>
    <varray name="basis" >
     <v>       8.08704000       0.00000000       0.00000000 </v>
     <v>       0.00000000       8.08704000       0.00000000 </v>
     <v>       0.00000000       0.00000000       8.08704000 </v>
    </varray>
    <i name="volume">    528.89416249 </i>
    <varray name="rec_basis" >
     <v>       0.12365464       0.00000000       0.00000000 </v>
     <v>       0.00000000       0.12365464       0.00000000 </v>
     <v>       0.00000000       0.00000000       0.12365464 </v>
    </varray>
   </crystal>
   <varray name="positions" >
    <v>       0.99788334       0.99822788       0.99971633 </v>
    <v>       0.25296363       0.00744719       0.25294060 </v>
    <v>       0.25312200       0.25000000       0.00387997 </v>
    <v>       0.00238699       0.25000000       0.25230304 </v>
    <v>       0.50191646       0.00308976       0.00402721 </v>
    <v>       0.74597279       0.00308976       0.24808354 </v>
    <v>       0.74953815       0.25000000       0.00046185 </v>
    <v>       0.99788334       0.50177212       0.99971633 </v>
    <v>       0.25296363       0.49255281       0.25294060 </v>
    <v>       0.25200510       0.75000000       0.99913038 </v>
    <v>       0.99676763       0.75000000       0.24870480 </v>
    <v>       0.50191646       0.49691024       0.00402721 </v>
    <v>       0.74597279       0.49691024       0.24808354 </v>
    <v>       0.74922071       0.75000000       0.00077929 </v>
    <v>       0.50239099       0.75000000       0.24760901 </v>
    <v>       0.00276959       0.00319930       0.49996103 </v>
    <v>       0.25003897       0.00319930       0.74723041 </v>
    <v>       0.00203017       0.25000000       0.74796983 </v>
    <v>       0.49705940       0.00744719       0.49703637 </v>
    <v>       0.75028367       0.99822788       0.75211666 </v>
    <v>       0.74612003       0.25000000       0.49687800 </v>
    <v>       0.49769696       0.25000000       0.74761301 </v>
    <v>       0.00276959       0.49680070       0.49996103 </v>
    <v>       0.25003897       0.49680070       0.74723041 </v>
    <v>       0.24940507       0.75000000       0.50059493 </v>
    <v>      -0.00041561       0.75000000       0.75041561 </v>
    <v>       0.49705940       0.49255281       0.49703637 </v>
    <v>       0.75028367       0.50177212       0.75211666 </v>
    <v>       0.75086962       0.75000000       0.49799490 </v>
    <v>       0.50129520       0.75000000       0.75323237 </v>
    <v>       0.49979331       0.25000000       0.25020669 </v>
   </varray>
  </structure>
  <varray name="forces" >
   <v>       0.03386763      -0.00996655      -0.00536240 </v>
   <v>       0.05790270       0.13591482       0.06343073 </v>
   <v>      -0.01192845       0.00000000       0.04983641 </v>
   <v>       0.05568278       0.00000000       0.01135301 </v>
   <v>      -0.04568186       0.00612604      -0.00444725 </v>
   <v>       0.00444725       0.00612604       0.04568186 </v>
   <v>      -0.00930943       0.00000000       0.00930943 </v>
   <v>       0.03386763       0.00996655      -0.00536240 </v>
   <v>       0.05790270      -0.13591482       0.06343073 </v>
   <v>      -0.05174605       0.00000000       0.03959108 </v>
   <v>       0.03490019       0.00000000      -0.02203591 </v>
   <v>      -0.04568186      -0.00612604      -0.00444725 </v>
   <v>       0.00444725      -0.00612604       0.04568186 </v>
   <v>       0.07313102       0.00000000      -0.07313102 </v>
   <v>      -0.04821118       0.00000000       0.04821118 </v>
   <v>       0.01884163       0.03506943      -0.01033229 </v>
   <v>       0.01033229       0.03506943      -0.01884163 </v>
   <v>       0.01559739       0.00000000      -0.01559739 </v>
   <v>      -0.06343073       0.13591482      -0.05790270 </v>
   <v>       0.00536240      -0.00996655      -0.03386763 </v>
   <v>      -0.04983641       0.00000000       0.01192845 </v>
   <v>      -0.01135301       0.00000000      -0.05568278 </v>
   <v>       0.01884163      -0.03506943      -0.01033229 </v>
   <v>       0.01033229      -0.03506943      -0.01884163 </v>
   <v>       0.01829954       0.00000000      -0.01829954 </v>
   <v>      -0.04995347       0.00000000       0.04995347 </v>
   <v>      -0.06343073      -0.13591482      -0.05790270 </v>
   <v>       0.00536240       0.00996655      -0.03386763 </v>
   <v>      -0.03959108       0.00000000       0.05174605 </v>
   <v>       0.02203591       0.00000000      -0.03490019 </v>
   <v>       0.00899963       0.00000000      -0.00899963 </v>
  </varray>
  <varray name="stress" >
   <v>     -16.26329733       0.00000000      -4.07675522 </v>
   <v>       0.00000000     -16.41968699       0.00000000 </v>
   <v>      -4.07675522       0.00000000     -16.26329733 </v>
  </varray>
  <energy>
   <i name="e_fr_energy">   -115.24365139 </i>
   <i name="e_wo_entrp">   -115.23696134 </i>
   <i name="e_0_energy">     -0.02007015 </i>
  </energy>
  <time name="totalsc">    8.07    8.09</time>
 </calculation>
 <calculation>
  <scstep>
   <time name="diag">    0.30    0.30</time>
   <time name="diis">    1.24    1.25</time>
   <time name="orth">    0.02    0.02</time>
   <time name="total">    1.94    1.95</time>
   <energy>
    <i name="alphaZ">     15.76595319 </i>
    <i name="ewald">  -2773.76555630 </i>
    <i name="hartreedc">   -748.36080669 </i>
    <i name="XCdc">   -743.17764254 </i>
    <i name="pawpsdc">   2152.26734119 </i>
    <i name="pawaedc">  -1338.36238563 </i>
    <i name="eentropy">     -0.01901969 </i>
    <i name="bandstr">    323.31306006 </i>
    <i name="atom">   2997.07640482 </i>
    <i name="e_fr_energy">   -115.26265158 </i>
    <i name="e_wo_entrp">   -115.24363188 </i>
    <i name="e_0_energy">   -115.25631168 </i>
   </energy>
  </scstep>
  <scstep>
   <time name="diag">    0.30    0.30</time>
   <time name="diis">    1.26    1.26</time>
   <time name="orth">    0.02    0.02</time>
   <time name="total">    1.95    1.95</time>
   <energy>
    <i name="e_fr_energy">   -115.25943188 </i>
    <i name="e_wo_entrp">   -115.24100779 </i>
    <i name="e_0_energy">   -115.25329052 </i>
   </energy>
  </scstep>
  <scstep>
   <time name="diag">    0.30    0.30</time>
   <time name="diis">    1.33    1.33</time>
   <time name="orth">    0.02    0.02</time>
   <time name="total">    2.02    2.02</time>
   <energy>
    <i name="e_fr_energy">   -115.25918703 </i>
    <i name="e_wo_entrp">   -115.24061628 </i>
    <i name="e_0_energy">   -115.25299678 </i>
   </energy>
  </scstep>
  <scstep>
   <time name="diag">    0.30    0.30</time>
   <time name="diis">    0.85    0.85</time>
   <time name="orth">    0.02    0.02</time>
   <time name="total">    1.34    1.34</time>
   <energy>
    <i name="alphaZ">     15.76595319 </i>
    <i name="ewald">  -2773.76555630 </i>
    <i name="hartreedc">   -748.24539942 </i>
    <i name="XCdc">   -743.19524403 </i>
    <i name="pawpsdc">   2153.33752759 </i>
    <i name="pawaedc">  -1339.43777819 </i>
    <i name="eentropy">     -0.01866011 </i>
    <i name="bandstr">    323.22355736 </i>
    <i name="atom">   2997.07640482 </i>
    <i name="e_fr_energy">   -115.25919508 </i>
    <i name="e_wo_entrp">   -115.24053498 </i>
    <i name="e_0_energy">   -115.25297505 </i>
   </energy>
  </scstep>
  <structure>
   <crystal>
    <varray name="basis" >
     <v>       8.08704000       0.00000000       0.00000000 </v>
     <v>       0.00000000       8.08704000       0.00000000 </v>
     <v>       0.00000000       0.00000000       8.08704000 </v>
    </varray>
    <i name="volume">    528.89416249 </i>
    <varray name="rec_basis" >
     <v>       0.12365464       0.00000000       0.00000000 </v>
     <v>       0.00000000       0.12365464       0.00000000 </v>
     <v>       0.00000000       0.00000000       0.12365464 </v>
    </varray>
   </crystal>
   <varray name="positions" >
    <v>       0.99829782       0.99791049       0.99949837 </v>
    <v>       0.25436173       0.01034642       0.25438776 </v>
    <v>       0.25318410       0.25000000       0.00526511 </v>
    <v>       0.00393867       0.25000000       0.25285487 </v>
    <v>       0.50078153       0.00353513       0.00412005 </v>
    <v>       0.74587995       0.00353513       0.24921847 </v>
    <v>       0.74923919       0.25000000       0.00076081 </v>
    <v>       0.99829782       0.50208951       0.99949837 </v>
    <v>       0.25436173       0.48965358       0.25438776 </v>
    <v>       0.25108757       0.75000000       0.99983310 </v>
    <v>       0.99723507       0.75000000       0.24811760 </v>
    <v>       0.50078153       0.49646487       0.00412005 </v>
    <v>       0.74587995       0.49646487       0.24921847 </v>
    <v>       0.75107943       0.75000000      -0.00107943 </v>
    <v>       0.50126403       0.75000000       0.24873597 </v>
    <v>       0.00335687       0.00432113       0.49954702 </v>
    <v>       0.25045298       0.00432113       0.74664313 </v>
    <v>       0.00257075       0.25000000       0.74742925 </v>
    <v>       0.49561224       0.01034642       0.49563827 </v>
    <v>       0.75050163       0.99791049       0.75170218 </v>
    <v>       0.74473489       0.25000000       0.49681590 </v>
    <v>       0.49714513       0.25000000       0.74606133 </v>
    <v>       0.00335687       0.49567887       0.49954702 </v>
    <v>       0.25045298       0.49567887       0.74664313 </v>
    <v>       0.24996840       0.75000000       0.50003160 </v>
    <v>      -0.00180348       0.75000000       0.75180348 </v>
    <v>       0.49561224       0.48965358       0.49563827 </v>
    <v>       0.75050163       0.50208951       0.75170218 </v>
    <v>       0.75016690       0.75000000       0.49891243 </v>
    <v>       0.50188240       0.75000000       0.75276493 </v>
    <v>       0.49981945       0.25000000       0.25018055 </v>
   </varray>
  </structure>
  <varray name="forces" >
   <v>       0.03840926       0.03786342       0.02489455 </v>
   <v>       0.00282467       0.04861136       0.01990321 </v>
   <v>      -0.02175473       0.00000000      -0.02998266 </v>
   <v>      -0.03465115       0.00000000      -0.01478538 </v>
   <v>       0.01133338      -0.02449613      -0.01234124 </v>
   <v>       0.01234124      -0.02449613      -0.01133338 </v>
   <v>      -0.00552231       0.00000000       0.00552231 </v>
   <v>       0.03840926      -0.03786342       0.02489455 </v>
   <v>       0.00282467      -0.04861136       0.01990321 </v>
   <v>      -0.00972630       0.00000000       0.03095929 </v>
   <v>       0.03359779       0.00000000       0.02143043 </v>
   <v>       0.01133338       0.02449613      -0.01234124 </v>
   <v>       0.01234124       0.02449613      -0.01133338 </v>
   <v>      -0.05648025       0.00000000       0.05648025 </v>
   <v>       0.00893866       0.00000000      -0.00893866 </v>
   <v>       0.00252335      -0.01191798       0.01006899 </v>
   <v>      -0.01006899      -0.01191798      -0.00252335 </v>
   <v>      -0.00145353       0.00000000       0.00145353 </v>
   <v>      -0.01990321       0.04861136      -0.00282467 </v>
   <v>      -0.02489455       0.03786342      -0.03840926 </v>
   <v>       0.02998266       0.00000000       0.02175473 </v>
   <v>       0.01478538       0.00000000       0.03465115 </v>
   <v>       0.00252335       0.01191798       0.01006899 </v>
   <v>      -0.01006899       0.01191798      -0.00252335 </v>
   <v>      -0.01825981       0.00000000       0.01825981 </v>
   <v>       0.05914530       0.00000000      -0.05914530 </v>
   <v>      -0.01990321      -0.04861136      -0.00282467 </v>
   <v>      -0.02489455      -0.03786342      -0.03840926 </v>
   <v>      -0.03095929       0.00000000       0.00972630 </v>
   <v>      -0.02143043       0.00000000      -0.03359779 </v>
   <v>       0.02865769       0.00000000      -0.02865769 </v>
  </varray>
  <varray name="stress" >
   <v>     -16.86003091       0.00000000      -3.89648262 </v>
   <v>       0.00000000     -18.54880054       0.00000000 </v>
   <v>      -3.89648262       0.00000000     -16.86003091 </v>
  </varray>
  <energy>
   <i name="e_fr_energy">   -115.25919508 </i>
   <i name="e_wo_entrp">   -115.25297505 </i>
   <i name="e_0_energy">     -0.01866011 </i>
  </energy>
  <time name="totalsc">    9.47    9.49</time>
  <eigenvalues>
   <array>
    <dimension dim="1">band</dimension>
    <dimension dim="2">kpoint</dimension>
    <dimension dim="3">spin</dimension>
    <field>eigene</field>
    <field>occ</field>
    <set>
     <set comment="spin 1">
      <set comment="kpoint 1">
       <r>   -3.0392    1.0000 </r>
       <r>   -1.9764    1.0000 </r>
       <r>   -1.9240    1.0000 </r>
       <r>   -1.8054    1.0000 </r>
       <r>   -0.8651    1.0000 </r>
       <r>   -0.8042    1.0000 </r>
       <r>   -0.6237    1.0000 </r>
       <r>    0.2367    1.0000 </r>
       <r>    0.2736    1.0000 </r>
       <r>    0.3082    1.0000 </r>
       <r>    0.5614    1.0000 </r>
       <r>    1.2923    1.0000 </r>
       <r>    1.3148    1.0000 </r>
       <r>    1.3813    1.0000 </r>
       <r>    1.4006    1.0000 </r>
       <r>    1.5285    1.0000 </r>
       <r>    1.7920    1.0000 </r>
       <r>    2.4670    1.0000 </r>
       <r>    2.5328    1.0000 </r>
       <r>    2.6600    1.0000 </r>
       <r>    3.3210    1.0000 </r>
       <r>    3.3740    1.0000 </r>
       <r>    3.4539    1.0000 </r>
       <r>    3.5288    1.0000 </r>
       <r>    3.5996    1.0000 </r>
       <r>    3.7105    1.0000 </r>
       <r>    3.8793    1.0000 </r>
       <r>    3.9868    1.0000 </r>
       <r>    4.1093    1.0000 </r>
       <r>    4.1696    1.0000 </r>
       <r>    4.2181    1.0000 </r>
       <r>    4.5925    1.0000 </r>
       <r>    4.6308    1.0000 </r>
       <r>    4.6691    1.0000 </r>
       <r>    4.7603    1.0000 </r>
       <r>    4.8045    1.0000 </r>
       <r>    4.9178    1.0000 </r>
       <r>    4.9600    1.0000 </r>
       <r>    5.0070    1.0000 </r>
       <r>    5.3012    1.0000 </r>
       <r>    5.7031    1.0000 </r>
       <r>    5.9329    1.0000 </r>
       <r>    6.1777    1.0000 </r>
       <r>    6.7129    1.0000 </r>
       <r>    6.7727    1.0000 </r>
       <r>    6.8057    1.0000 </r>
       <r>    6.9391    1.0000 </r>
       <r>    6.9821    1.0000 </r>
       <r>    7.0166    1.0000 </r>
       <r>    7.0444    1.0000 </r>
       <r>    7.7819    0.3763 </r>
       <r>    7.8655    0.0961 </r>
       <r>    7.9379   -0.0159 </r>
       <r>    8.0302   -0.0322 </r>
       <r>    8.0459   -0.0291 </r>
       <r>    8.0794   -0.0214 </r>
       <r>    8.1473   -0.0087 </r>
       <r>    8.1822   -0.0048 </r>
       <r>    8.2537   -0.0011 </r>
       <r>    9.0837    0.0000 </r>
       <r>    9.1347    0.0000 </r>
       <r>    9.2164    0.0000 </r>
       <r>    9.3587    0.0000 </r>
       <r>    9.3819    0.0000 </r>
       <r>    9.4380    0.0000 </r>
       <r>    9.8591    0.0000 </r>
       <r>    9.9111    0.0000 </r>
       <r>    9.9802    0.0000 </r>
       <r>   10.0267    0.0000 </r>
       <r>   10.0559    0.0000 </r>
       <r>   10.1505    0.0000 </r>
       <r>   10.5600    0.0000 </r>
      </set>
      <set comment="kpoint 2">
       <r>   -3.0376    1.0000 </r>
       <r>   -1.9759    1.0000 </r>
       <r>   -1.9537    1.0000 </r>
       <r>   -1.7811    1.0000 </r>
       <r>   -0.8652    1.0000 </r>
       <r>   -0.8316    1.0000 </r>
       <r>   -0.5533    1.0000 </r>
       <r>    0.2354    1.0000 </r>
       <r>    0.2487    1.0000 </r>
       <r>    0.3419    1.0000 </r>
       <r>    0.4823    1.0000 </r>
       <r>    1.2845    1.0000 </r>
       <r>    1.3080    1.0000 </r>
       <r>    1.3281    1.0000 </r>
       <r>    1.4367    1.0000 </r>
       <r>    1.5495    1.0000 </r>
       <r>    1.8266    1.0000 </r>
       <r>    2.5032    1.0000 </r>
       <r>    2.5112    1.0000 </r>
       <r>    2.6347    1.0000 </r>
       <r>    3.3536    1.0000 </r>
       <r>    3.3771    1.0000 </r>
       <r>    3.4769    1.0000 </r>
       <r>    3.5360    1.0000 </r>
       <r>    3.5865    1.0000 </r>
       <r>    3.7753    1.0000 </r>
       <r>    3.8854    1.0000 </r>
       <r>    3.9715    1.0000 </r>
       <r>    4.1147    1.0000 </r>
       <r>    4.1174    1.0000 </r>
       <r>    4.2869    1.0000 </r>
       <r>    4.5510    1.0000 </r>
       <r>    4.6214    1.0000 </r>
       <r>    4.6305    1.0000 </r>
       <r>    4.7641    1.0000 </r>
       <r>    4.7884    1.0000 </r>
       <r>    4.8770    1.0000 </r>
       <r>    4.9996    1.0000 </r>
       <r>    5.0958    1.0000 </r>
       <r>    5.2034    1.0000 </r>
       <r>    5.6997    1.0000 </r>
       <r>    5.8009    1.0000 </r>
       <r>    6.2909    1.0000 </r>
       <r>    6.7120    1.0000 </r>
       <r>    6.7416    1.0000 </r>
       <r>    6.7501    1.0000 </r>
       <r>    6.9024    1.0000 </r>
       <r>    6.9861    1.0000 </r>
       <r>    7.0187    1.0000 </r>
       <r>    7.0631    1.0000 </r>
       <r>    7.7821    0.3758 </r>
       <r>    7.8255    0.2122 </r>
       <r>    7.8620    0.1046 </r>
       <r>    8.0768   -0.0220 </r>
       <r>    8.0895   -0.0192 </r>
       <r>    8.1664   -0.0063 </r>
       <r>    8.2094   -0.0029 </r>
       <r>    8.2454   -0.0013 </r>
       <r>    8.3711   -0.0001 </r>
       <r>    9.0254    0.0000 </r>
       <r>    9.0674    0.0000 </r>
       <r>    9.1437    0.0000 </r>
       <r>    9.3077    0.0000 </r>
       <r>    9.4052    0.0000 </r>
       <r>    9.4295    0.0000 </r>
       <r>    9.9508    0.0000 </r>
       <r>    9.9549    0.0000 </r>
       <r>    9.9648    0.0000 </r>
       <r>    9.9794    0.0000 </r>
       <r>   10.1595    0.0000 </r>
       <r>   10.1748    0.0000 </r>
       <r>   10.5508    0.0000 </r>
      </set>
     </set>
    </set>
   </array>
  </eigenvalues>
  <separator name="orbital magnetization" >
   <v name="MAGDIPOLOUT">      0.00000000      0.00000000      0.00000000</v>
  </separator>
  <dos>
   <i name="efermi">      7.75235998 </i>
   <total>
    <array>
     <dimension dim="1">gridpoints</dimension>
     <dimension dim="2">spin</dimension>
     <field>energy</field>
     <field>total</field>
     <field>integrated</field>
     <set>
      <set comment="spin 1">
       <r>  -5.0392   0.0000   0.0000 </r>
       <r>  -4.9805   0.0000   0.0000 </r>
       <r>  -4.9218   0.0000   0.0000 </r>
       <r>  -4.8632   0.0000   0.0000 </r>
       <r>  -4.8045   0.0000   0.0000 </r>
       <r>  -4.7459   0.0000   0.0000 </r>
       <r>  -4.6872   0.0000   0.0000 </r>
       <r>  -4.6285   0.0000   0.0000 </r>
       <r>  -4.5699   0.0000   0.0000 </r>
       <r>  -4.5112   0.0000   0.0000 </r>
       <r>  -4.4525   0.0000   0.0000 </r>
       <r>  -4.3939   0.0000   0.0000 </r>
       <r>  -4.3352   0.0000   0.0000 </r>
       <r>  -4.2765   0.0000   0.0000 </r>
       <r>  -4.2179   0.0000   0.0000 </r>
       <r>  -4.1592   0.0000   0.0000 </r>
       <r>  -4.1005   0.0000   0.0000 </r>
       <r>  -4.0419   0.0000   0.0000 </r>
       <r>  -3.9832   0.0000   0.0000 </r>
       <r>  -3.9246   0.0000   0.0000 </r>
       <r>  -3.8659   0.0000   0.0000 </r>
       <r>  -3.8072   0.0000   0.0000 </r>
       <r>  -3.7486  -0.0001   0.0000 </r>
       <r>  -3.6899  -0.0006   0.0000 </r>
       <r>  -3.6312  -0.0032  -0.0002 </r>
       <r>  -3.5726  -0.0139  -0.0010 </r>
       <r>  -3.5139  -0.0492  -0.0039 </r>
       <r>  -3.4552  -0.1386  -0.0121 </r>
       <r>  -3.3966  -0.2983  -0.0296 </r>
       <r>  -3.3379  -0.4423  -0.0555 </r>
       <r>  -3.2793  -0.2604  -0.0708 </r>
       <r>  -3.2206   0.7543  -0.0265 </r>
       <r>  -3.1619   2.9130   0.1444 </r>
       <r>  -3.1033   5.7487   0.4816 </r>
       <r>  -3.0446   7.9391   0.9473 </r>
       <r>  -2.9859   8.1814   1.4273 </r>
       <r>  -2.9273   6.3206   1.7981 </r>
       <r>  -2.8686   3.4931   2.0030 </r>
       <r>  -2.8099   1.1176   2.0686 </r>
       <r>  -2.7513  -0.1321   2.0608 </r>
       <r>  -2.6926  -0.4465   2.0346 </r>
       <r>  -2.6340  -0.3372   2.0148 </r>
       <r>  -2.5753  -0.1708   2.0048 </r>
       <r>  -2.5166  -0.0797   2.0001 </r>
       <r>  -2.4580  -0.0830   1.9953 </r>
       <r>  -2.3993  -0.2001   1.9835 </r>
       <r>  -2.3406  -0.4662   1.9562 </r>
       <r>  -2.2820  -0.8166   1.9083 </r>
       <r>  -2.2233  -0.8553   1.8581 </r>
       <r>  -2.1646   0.2652   1.8737 </r>
       <r>  -2.1060   3.4542   2.0763 </r>
       <r>  -2.0473   8.7430   2.5892 </r>
       <r>  -1.9887  14.6374   3.4479 </r>
       <r>  -1.9300  18.7699   4.5490 </r>
       <r>  -1.8713  19.5098   5.6935 </r>
       <r>  -1.8127  16.9438   6.6875 </r>
       <r>  -1.7540  12.4211   7.4162 </r>
       <r>  -1.6953   7.5210   7.8574 </r>
       <r>  -1.6367   3.4401   8.0592 </r>
       <r>  -1.5780   0.8001   8.1061 </r>
       <r>  -1.5193  -0.4003   8.0826 </r>
       <r>  -1.4607  -0.6291   8.0457 </r>
       <r>  -1.4020  -0.4602   8.0187 </r>
       <r>  -1.3434  -0.2859   8.0020 </r>
       <r>  -1.2847  -0.2786   7.9856 </r>
       <r>  -1.2260  -0.4781   7.9576 </r>
       <r>  -1.1674  -0.7772   7.9120 </r>
       <r>  -1.1087  -0.7451   7.8683 </r>
       <r>  -1.0500   0.4590   7.8952 </r>
       <r>  -0.9914   3.6472   8.1092 </r>
       <r>  -0.9327   8.6251   8.6151 </r>
       <r>  -0.8740  13.6370   9.4151 </r>
       <r>  -0.8154  16.3407  10.3737 </r>
       <r>  -0.7567  15.7778  11.2993 </r>
       <r>  -0.6981  13.1728  12.0721 </r>
       <r>  -0.6394  10.5081  12.6885 </r>
       <r>  -0.5807   8.6002  13.1931 </r>
       <r>  -0.5221   6.8968  13.5977 </r>
       <r>  -0.4634   4.7863  13.8784 </r>
       <r>  -0.4047   2.4943  14.0248 </r>
       <r>  -0.3461   0.7047  14.0661 </r>
       <r>  -0.2874  -0.2294  14.0526 </r>
       <r>  -0.2287  -0.5151  14.0224 </r>
       <r>  -0.1701  -0.6082  13.9867 </r>
       <r>  -0.1114  -0.8418  13.9374 </r>
       <r>  -0.0528  -1.1690  13.8688 </r>
       <r>   0.0059  -0.9465  13.8133 </r>
       <r>   0.0646   1.0442  13.8745 </r>
       <r>   0.1232   5.8618  14.2184 </r>
       <r>   0.1819  13.0695  14.9851 </r>
       <r>   0.2406  20.1147  16.1651 </r>
       <r>   0.2992  23.7374  17.5576 </r>
       <r>   0.3579  22.5518  18.8806 </r>
       <r>   0.4166  18.1059  19.9428 </r>
       <r>   0.4752  13.1980  20.7170 </r>
       <r>   0.5339   9.4473  21.2712 </r>
       <r>   0.5926   6.7044  21.6645 </r>
       <r>   0.6512   4.2894  21.9162 </r>
       <r>   0.7099   2.0953  22.0391 </r>
       <r>   0.7685   0.4794  22.0672 </r>
       <r>   0.8272  -0.3905  22.0443 </r>
       <r>   0.8859  -0.7849  21.9982 </r>
       <r>   0.9445  -1.1246  21.9323 </r>
       <r>   1.0032  -1.4969  21.8445 </r>
       <r>   1.0619  -1.2481  21.7712 </r>
       <r>   1.1205   1.0321  21.8318 </r>
       <r>   1.1792   6.6786  22.2236 </r>
       <r>   1.2379  15.4307  23.1288 </r>
       <r>   1.2965  24.6228  24.5733 </r>
       <r>   1.3552  30.4766  26.3611 </r>
       <r>   1.4138  30.7249  28.1636 </r>
       <r>   1.4725  26.0299  29.6906 </r>
       <r>   1.5312  19.0150  30.8061 </r>
       <r>   1.5898  12.3997  31.5335 </r>
       <r>   1.6485   7.9773  32.0015 </r>
       <r>   1.7072   6.3505  32.3740 </r>
       <r>   1.7658   6.7746  32.7714 </r>
       <r>   1.8245   7.4863  33.2106 </r>
       <r>   1.8832   6.9176  33.6164 </r>
       <r>   1.9418   4.8516  33.9010 </r>
       <r>   2.0005   2.2931  34.0355 </r>
       <r>   2.0591   0.3152  34.0540 </r>
       <r>   2.1178  -0.7733  34.0087 </r>
       <r>   2.1765  -1.2358  33.9362 </r>
       <r>   2.2351  -1.1563  33.8683 </r>
       <r>   2.2938   0.0311  33.8702 </r>
       <r>   2.3525   3.2171  34.0589 </r>
       <r>   2.4111   8.5972  34.5632 </r>
       <r>   2.4698  14.8359  35.4336 </r>
       <r>   2.5285  19.4744  36.5760 </r>
       <r>   2.5871  20.4994  37.7786 </r>
       <r>   2.6458  17.6661  38.8149 </r>
       <r>   2.7044  12.4391  39.5447 </r>
       <r>   2.7631   6.8907  39.9489 </r>
       <r>   2.8218   2.5928  40.1010 </r>
       <r>   2.8804   0.0964  40.1067 </r>
       <r>   2.9391  -0.9616  40.0502 </r>
       <r>   2.9978  -1.3219  39.9727 </r>
       <r>   3.0564  -1.4498  39.8876 </r>
       <r>   3.1151  -1.0871  39.8239 </r>
       <r>   3.1738   0.7171  39.8659 </r>
       <r>   3.2324   4.9352  40.1555 </r>
       <r>   3.2911  11.5486  40.8329 </r>
       <r>   3.3497  19.0875  41.9527 </r>
       <r>   3.4084  25.3427  43.4394 </r>
       <r>   3.4671  28.6307  45.1190 </r>
       <r>   3.5257  28.4659  46.7889 </r>
       <r>   3.5844  25.4439  48.2815 </r>
       <r>   3.6431  20.9343  49.5096 </r>
       <r>   3.7017  16.7100  50.4899 </r>
       <r>   3.7604  14.2422  51.3254 </r>
       <r>   3.8191  13.9741  52.1452 </r>
       <r>   3.8777  15.2995  53.0427 </r>
       <r>   3.9364  17.3145  54.0584 </r>
       <r>   3.9950  19.5243  55.2038 </r>
       <r>   4.0537  21.7134  56.4776 </r>
       <r>   4.1124  23.2365  57.8407 </r>
       <r>   4.1710  22.8501  59.1812 </r>
       <r>   4.2297  19.6115  60.3317 </r>
       <r>   4.2884  13.9911  61.1524 </r>
       <r>   4.3470   8.0697  61.6258 </r>
       <r>   4.4057   4.6484  61.8985 </r>
       <r>   4.4644   5.8147  62.2396 </r>
       <r>   4.5230  11.6293  62.9219 </r>
       <r>   4.5817  19.7986  64.0833 </r>
       <r>   4.6403  26.9528  65.6645 </r>
       <r>   4.6990  30.7831  67.4703 </r>
       <r>   4.7577  31.2018  69.3007 </r>
       <r>   4.8163  29.6551  71.0404 </r>
       <r>   4.8750  27.5817  72.6585 </r>
       <r>   4.9337  25.4580  74.1519 </r>
       <r>   4.9923  22.9302  75.4971 </r>
       <r>   5.0510  19.6436  76.6495 </r>
       <r>   5.1097  15.9173  77.5832 </r>
       <r>   5.1683  12.5468  78.3193 </r>
       <r>   5.2270   9.9766  78.9045 </r>
       <r>   5.2857   7.8754  79.3665 </r>
       <r>   5.3443   5.6341  79.6971 </r>
       <r>   5.4030   3.1758  79.8834 </r>
       <r>   5.4616   1.2137  79.9546 </r>
       <r>   5.5203   0.7858  80.0007 </r>
       <r>   5.5790   2.4843  80.1464 </r>
       <r>   5.6376   5.8683  80.4907 </r>
       <r>   5.6963   9.4924  81.0475 </r>
       <r>   5.7550  11.7167  81.7349 </r>
       <r>   5.8136  11.7528  82.4243 </r>
       <r>   5.8723  10.0039  83.0112 </r>
       <r>   5.9310   7.5149  83.4520 </r>
       <r>   5.9896   5.3014  83.7630 </r>
       <r>   6.0483   4.0988  84.0035 </r>
       <r>   6.1069   4.2415  84.2523 </r>
       <r>   6.1656   5.4086  84.5696 </r>
       <r>   6.2243   6.6076  84.9572 </r>
       <r>   6.2829   6.7264  85.3518 </r>
       <r>   6.3416   5.2838  85.6618 </r>
       <r>   6.4003   2.7701  85.8243 </r>
       <r>   6.4589   0.4609  85.8513 </r>
       <r>   6.5176  -0.0083  85.8508 </r>
       <r>   6.5763   2.7444  86.0118 </r>
       <r>   6.6349   8.9053  86.5343 </r>
       <r>   6.6936  16.7648  87.5177 </r>
       <r>   6.7522  23.5208  88.8976 </r>
       <r>   6.8109  27.5218  90.5121 </r>
       <r>   6.8696  29.5297  92.2444 </r>
       <r>   6.9282  31.0845  94.0680 </r>
       <r>   6.9869  31.8591  95.9369 </r>
       <r>   7.0456  29.6357  97.6755 </r>
       <r>   7.1042  23.1310  99.0324 </r>
       <r>   7.1629  14.0238  99.8551 </r>
       <r>   7.2216   5.7198 100.1906 </r>
       <r>   7.2802   0.5667 100.2239 </r>
       <r>   7.3389  -1.4178 100.1407 </r>
       <r>   7.3975  -1.6519 100.0438 </r>
       <r>   7.4562  -1.4878  99.9565 </r>
       <r>   7.5149  -1.3827  99.8754 </r>
       <r>   7.5735  -0.8132  99.8277 </r>
       <r>   7.6322   1.3216  99.9052 </r>
       <r>   7.6909   5.8089 100.2460 </r>
       <r>   7.7495  12.1019 100.9560 </r>
       <r>   7.8082  18.2629 102.0273 </r>
       <r>   7.8669  22.4847 103.3464 </r>
       <r>   7.9255  24.8645 104.8050 </r>
       <r>   7.9842  27.2365 106.4028 </r>
       <r>   8.0428  30.9305 108.2173 </r>
       <r>   8.1015  34.9553 110.2679 </r>
       <r>   8.1602  36.6630 112.4187 </r>
       <r>   8.2188  34.0622 114.4169 </r>
       <r>   8.2775  27.3994 116.0243 </r>
       <r>   8.3362  18.8137 117.1279 </r>
       <r>   8.3948  10.7950 117.7612 </r>
       <r>   8.4535   4.8779 118.0474 </r>
       <r>   8.5122   1.3444 118.1262 </r>
       <r>   8.5708  -0.3266 118.1071 </r>
       <r>   8.6295  -0.9090 118.0538 </r>
       <r>   8.6881  -1.0812 117.9903 </r>
       <r>   8.7468  -1.1953 117.9202 </r>
       <r>   8.8055  -1.0656 117.8577 </r>
       <r>   8.8641   0.0863 117.8628 </r>
       <r>   8.9228   3.2183 118.0516 </r>
       <r>   8.9815   8.5399 118.5525 </r>
       <r>   9.0401  14.7757 119.4193 </r>
       <r>   9.0988  19.6873 120.5743 </r>
       <r>   9.1575  21.8577 121.8565 </r>
       <r>   9.2161  22.0310 123.1489 </r>
       <r>   9.2748  22.2559 124.4546 </r>
       <r>   9.3334  23.4436 125.8299 </r>
       <r>   9.3921  24.0746 127.2422 </r>
       <r>   9.4508  21.7170 128.5162 </r>
       <r>   9.5094  15.7093 129.4377 </r>
       <r>   9.5681   8.0144 129.9079 </r>
       <r>   9.6268   1.6360 130.0039 </r>
       <r>   9.6854  -1.2299 129.9317 </r>
       <r>   9.7441   0.4135 129.9560 </r>
       <r>   9.8028   6.6944 130.3487 </r>
       <r>   9.8614  16.5281 131.3183 </r>
       <r>   9.9201  27.0335 132.9042 </r>
       <r>   9.9787  34.3545 134.9195 </r>
       <r>  10.0374  35.9241 137.0270 </r>
       <r>  10.0961  31.9650 138.9022 </r>
       <r>  10.1547  24.6854 140.3503 </r>
       <r>  10.2134  16.4563 141.3157 </r>
       <r>  10.2721   9.0281 141.8453 </r>
       <r>  10.3307   3.7931 142.0678 </r>
       <r>  10.3894   1.7500 142.1705 </r>
       <r>  10.4481   2.8334 142.3367 </r>
       <r>  10.5067   5.5394 142.6617 </r>
       <r>  10.5654   7.6274 143.1091 </r>
       <r>  10.6241   7.5609 143.5527 </r>
       <r>  10.6827   5.4654 143.8733 </r>
       <r>  10.7414   2.7162 144.0326 </r>
       <r>  10.8000   0.6515 144.0709 </r>
       <r>  10.8587  -0.2905 144.0538 </r>
       <r>  10.9174  -0.4376 144.0281 </r>
       <r>  10.9760  -0.2867 144.0113 </r>
       <r>  11.0347  -0.1309 144.0036 </r>
       <r>  11.0934  -0.0458 144.0010 </r>
       <r>  11.1520  -0.0128 144.0002 </r>
       <r>  11.2107  -0.0029 144.0000 </r>
       <r>  11.2694  -0.0005 144.0000 </r>
       <r>  11.3280  -0.0001 144.0000 </r>
       <r>  11.3867   0.0000 144.0000 </r>
       <r>  11.4453   0.0000 144.0000 </r>
       <r>  11.5040   0.0000 144.0000 </r>
       <r>  11.5627   0.0000 144.0000 </r>
       <r>  11.6213   0.0000 144.0000 </r>
       <r>  11.6800   0.0000 144.0000 </r>
       <r>  11.7387   0.0000 144.0000 </r>
       <r>  11.7973   0.0000 144.0000 </r>
       <r>  11.8560   0.0000 144.0000 </r>
       <r>  11.9147   0.0000 144.0000 </r>
       <r>  11.9733   0.0000 144.0000 </r>
       <r>  12.0320   0.0000 144.0000 </r>
       <r>  12.0906   0.0000 144.0000 </r>
       <r>  12.1493   0.0000 144.0000 </r>
       <r>  12.2080   0.0000 144.0000 </r>
       <r>  12.2666   0.0000 144.0000 </r>
       <r>  12.3253   0.0000 144.0000 </r>
       <r>  12.3840   0.0000 144.0000 </r>
       <r>  12.4426   0.0000 144.0000 </r>
       <r>  12.5013   0.0000 144.0000 </r>
       <r>  12.5600   0.0000 144.0000 </r>
      </set>
     </set>
    </array>
   </total>
  </dos>
 </calculation>
 <structure name="finalpos" >
  <crystal>
   <varray name="basis" >
    <v>       8.08704000       0.00000000       0.00000000 </v>
    <v>       0.00000000       8.08704000       0.00000000 </v>
    <v>       0.00000000       0.00000000       8.08704000 </v>
   </varray>
   <i name="volume">    528.89416249 </i>
   <varray name="rec_basis" >
    <v>       0.12365464       0.00000000       0.00000000 </v>
    <v>       0.00000000       0.12365464       0.00000000 </v>
    <v>       0.00000000       0.00000000       0.12365464 </v>
   </varray>
  </crystal>
  <varray name="positions" >
   <v>       0.99829782       0.99791049       0.99949837 </v>
   <v>       0.25436173       0.01034642       0.25438776 </v>
   <v>       0.25318410       0.25000000       0.00526511 </v>
   <v>       0.00393867       0.25000000       0.25285487 </v>
   <v>       0.50078153       0.00353513       0.00412005 </v>
   <v>       0.74587995       0.00353513       0.24921847 </v>
   <v>       0.74923919       0.25000000       0.00076081 </v>
   <v>       0.99829782       0.50208951       0.99949837 </v>
   <v>       0.25436173       0.48965358       0.25438776 </v>
   <v>       0.25108757       0.75000000       0.99983310 </v>
   <v>       0.99723507       0.75000000       0.24811760 </v>
   <v>       0.50078153       0.49646487       0.00412005 </v>
   <v>       0.74587995       0.49646487       0.24921847 </v>
   <v>       0.75107943       0.75000000      -0.00107943 </v>
   <v>       0.50126403       0.75000000       0.24873597 </v>
   <v>       0.00335687       0.00432113       0.49954702 </v>
   <v>       0.25045298       0.00432113       0.74664313 </v>
   <v>       0.00257075       0.25000000       0.74742925 </v>
   <v>       0.49561224       0.01034642       0.49563827 </v>
   <v>       0.75050163       0.99791049       0.75170218 </v>
   <v>       0.74473489       0.25000000       0.49681590 </v>
   <v>       0.49714513       0.25000000       0.74606133 </v>
   <v>       0.00335687       0.49567887       0.49954702 </v>
   <v>       0.25045298       0.49567887       0.74664313 </v>
   <v>       0.24996840       0.75000000       0.50003160 </v>
   <v>      -0.00180348       0.75000000       0.75180348 </v>
   <v>       0.49561224       0.48965358       0.49563827 </v>
   <v>       0.75050163       0.50208951       0.75170218 </v>
   <v>       0.75016690       0.75000000       0.49891243 </v>
   <v>       0.50188240       0.75000000       0.75276493 </v>
   <v>       0.49981945       0.25000000       0.25018055 </v>
  </varray>
 </structure>
</modeling>
