<?xml version="1.0" encoding="ISO-8859-1"?>
<modeling>
 <generator>
  <i name="program" type="string">vasp </i>
  <i name="version" type="string">5.2.2  </i>
  <i name="subversion" type="string">15Apr09 complex  parallel </i>
  <i name="platform" type="string">LinuxIFC </i>
  <i name="date" type="string">2017 01 11 </i>
  <i name="time" type="string">13:12:12 </i>
 </generator>
 <incar>
  <i type="string" name="PREC">accurate</i>
  <i type="int" name="IALGO">    48</i>
  <i type="int" name="IBRION">     2</i>
  <i name="EDIFFG">      0.05000000</i>
  <i type="int" name="NSW">   191</i>
  <i type="int" name="ISIF">     3</i>
  <i name="ENCUT">    300.00000000</i>
  <i type="int" name="ISMEAR">     1</i>
  <i name="SIGMA">      0.20000000</i>
  <i type="logical" name="LWAVE"> F  </i>
  <i type="logical" name="LCHARG"> F  </i>
  <i type="logical" name="LPEAD"> F  </i>
  <i type="logical" name="LCALCPOL"> F  </i>
  <i type="logical" name="LCALCEPS"> F  </i>
  <v name="EFIELD_PEAD">      0.00000000      0.00000000      0.00000000</v>
  <i type="logical" name="LEFG"> F  </i>
 </incar>
 <kpoints>
  <generation param="Gamma">
   <v type="int" name="divisions">       1        1        1 </v>
   <v name="usershift">      0.00000000       0.00000000       0.00000000 </v>
   <v name="genvec1">      1.00000000       0.00000000       0.00000000 </v>
   <v name="genvec2">      0.00000000       1.00000000       0.00000000 </v>
   <v name="genvec3">      0.00000000       0.00000000       1.00000000 </v>
   <v name="shift">      0.00000000       0.00000000       0.00000000 </v>
  </generation>
  <varray name="kpointlist" >
   <v>       0.00000000       0.00000000       0.00000000 </v>
  </varray>
  <varray name="weights" >
   <v>       1.00000000 </v>
  </varray>
 </kpoints>
 <parameters>
  <separator name="general" >
   <i type="string" name="SYSTEM">unknown system</i>
   <i type="logical" name="LCOMPAT"> F  </i>
  </separator>
  <separator name="electronic" >
   <i type="string" name="PREC">accura</i>
   <i name="ENMAX">    300.00000000</i>
   <i name="ENAUG">    291.05200000</i>
   <i name="EDIFF">      0.00010000</i>
   <i type="int" name="IALGO">    48</i>
   <i type="int" name="IWAVPR">    11</i>
   <i type="int" name="NBANDS">    96</i>
   <i name="NELECT">     96.00000000</i>
   <separator name="electronic smearing" >
    <i type="int" name="ISMEAR">     1</i>
    <i name="SIGMA">      0.20000000</i>
   </separator>
   <separator name="electronic projectors" >
    <i type="logical" name="LREAL"> F  </i>
    <v name="ROPT">      0.00000000</v>
    <i type="int" name="LMAXPAW">  -100</i>
    <i type="int" name="LMAXMIX">     2</i>
   </separator>
   <separator name="electronic startup" >
    <i type="int" name="ISTART">     0</i>
    <i type="int" name="ICHARG">     2</i>
    <i type="int" name="INIWAV">     1</i>
   </separator>
   <separator name="electronic spin" >
    <i type="int" name="ISPIN">     1</i>
    <i type="logical" name="LNONCOLLINEAR"> F  </i>
    <v name="MAGMOM">      1.00000000      1.00000000      1.00000000      1.00000000      1.00000000      1.00000000      1.00000000      1.00000000      1.00000000      1.00000000      1.00000000      1.00000000      1.00000000      1.00000000      1.00000000      1.00000000      1.00000000      1.00000000      1.00000000      1.00000000
      1.00000000      1.00000000      1.00000000      1.00000000      1.00000000      1.00000000      1.00000000      1.00000000      1.00000000      1.00000000      1.00000000      1.00000000</v>
    <i name="NUPDOWN">     -1.00000000</i>
    <i type="logical" name="LSORBIT"> F  </i>
    <v name="SAXIS">      0.00000000      0.00000000      1.00000000</v>
    <i type="logical" name="LSPIRAL"> F  </i>
    <v name="QSPIRAL">      0.00000000      0.00000000      0.00000000</v>
    <i type="logical" name="LZEROZ"> F  </i>
   </separator>
   <separator name="electronic exchange-correlation" >
    <i type="logical" name="LASPH"> F  </i>
    <i type="logical" name="LMETAGGA"> F  </i>
   </separator>
   <separator name="electronic convergence" >
    <i type="int" name="NELM">    60</i>
    <i type="int" name="NELMDL">   -12</i>
    <i type="int" name="NELMIN">     2</i>
    <i name="ENINI">    300.00000000</i>
    <separator name="electronic convergence detail" >
     <i type="logical" name="LDIAG"> T  </i>
     <i name="WEIMIN">      0.00100000</i>
     <i name="EBREAK">      0.00000038</i>
     <i name="DEPER">      0.30000000</i>
     <i type="int" name="NRMM">     4</i>
     <i name="TIME">      0.40000000</i>
    </separator>
   </separator>
   <separator name="electronic mixer" >
    <i name="AMIX">      0.40000000</i>
    <i name="BMIX">      1.00000000</i>
    <i name="AMIN">      0.10000000</i>
    <i name="AMIX_MAG">      1.60000000</i>
    <i name="BMIX_MAG">      1.00000000</i>
    <separator name="electronic mixer details" >
     <i type="int" name="IMIX">     4</i>
     <i type="int" name="MAXMIX">   -45</i>
     <i name="WC">    100.00000000</i>
     <i type="int" name="INIMIX">     1</i>
     <i type="int" name="MIXPRE">     1</i>
     <i type="int" name="MREMOVE">     5</i>
    </separator>
   </separator>
   <separator name="electronic dipolcorrection" >
    <i type="logical" name="LDIPOL"> F  </i>
    <i type="logical" name="LMONO"> F  </i>
    <i type="int" name="IDIPOL">     0</i>
    <i name="EPSILON">      1.00000000</i>
    <v name="DIPOL">   -100.00000000   -100.00000000   -100.00000000</v>
    <i name="EFIELD">      0.00000000</i>
   </separator>
  </separator>
  <separator name="grids" >
   <i type="int" name="NGX">    48</i>
   <i type="int" name="NGY">    48</i>
   <i type="int" name="NGZ">    48</i>
   <i type="int" name="NGXF">    96</i>
   <i type="int" name="NGYF">    96</i>
   <i type="int" name="NGZF">    96</i>
   <i type="logical" name="ADDGRID"> F  </i>
  </separator>
  <separator name="ionic" >
   <i type="int" name="NSW">   191</i>
   <i type="int" name="IBRION">     2</i>
   <i type="int" name="ISIF">     3</i>
   <i name="PSTRESS">      0.00000000</i>
   <i name="EDIFFG">      0.05000000</i>
   <i type="int" name="NFREE">     1</i>
   <i name="POTIM">      0.50000000</i>
   <i name="SMASS">     -3.00000000</i>
  </separator>
  <separator name="ionic md" >
   <i name="TEBEG">      0.00010000</i>
   <i name="TEEND">      0.00010000</i>
   <i type="int" name="NBLOCK">     1</i>
   <i type="int" name="KBLOCK">   191</i>
   <i type="int" name="NPACO">   256</i>
   <i name="APACO">     16.00000000</i>
  </separator>
  <separator name="symmetry" >
   <i type="int" name="ISYM">     2</i>
   <i name="SYMPREC">      0.00001000</i>
  </separator>
  <separator name="dos" >
   <i type="logical" name="LORBIT"> F  </i>
   <v name="RWIGS">     -1.00000000</v>
   <i type="int" name="NEDOS">   301</i>
   <i name="EMIN">     10.00000000</i>
   <i name="EMAX">    -10.00000000</i>
   <i name="EFERMI">      0.00000000</i>
  </separator>
  <separator name="writing" >
   <i type="int" name="NWRITE">     2</i>
   <i type="logical" name="LWAVE"> F  </i>
   <i type="logical" name="LCHARG"> F  </i>
   <i type="logical" name="LPARD"> F  </i>
   <i type="logical" name="LVTOT"> F  </i>
   <i type="logical" name="LELF"> F  </i>
   <i type="logical" name="LOPTICS"> F  </i>
   <v name="STM">      0.00000000      0.00000000      0.00000000      0.00000000      0.00000000</v>
  </separator>
  <separator name="performance" >
   <i type="int" name="NPAR">    32</i>
   <i type="int" name="NSIM">     4</i>
   <i type="int" name="NBLK">    32</i>
   <i type="logical" name="LPLANE"> T  </i>
   <i type="logical" name="LSCALAPACK"> F  </i>
   <i type="logical" name="LSCAAWARE"> F  </i>
   <i type="logical" name="LSCALU"> F  </i>
   <i type="logical" name="LASYNC"> F  </i>
  </separator>
  <separator name="miscellaneous" >
   <i type="int" name="IDIOT">     3</i>
   <i type="logical" name="LMUSIC"> F  </i>
   <v name="POMASS">     26.98200000</v>
   <i type="logical" name="LCORR"> T  </i>
  </separator>
  <i type="logical" name="LREAL_COMPAT"> F  </i>
  <i type="logical" name="GGA_COMPAT"> T  </i>
  <i type="logical" name="LBERRY"> F  </i>
  <i type="int" name="ICORELEVEL">     0</i>
  <i type="logical" name="LDAU"> F  </i>
  <i type="int" name="I_CONSTRAINED_M">     0</i>
  <separator name="electronic exchange-correlation" >
   <i type="string" name="GGA">--</i>
   <i type="int" name="VOSKOWN">     0</i>
   <i type="logical" name="LHFCALC"> F  </i>
   <i type="logical" name="LHFONE"> F  </i>
   <i type="logical" name="LRHFCALC"> F  </i>
   <i type="logical" name="LTHOMAS"> F  </i>
   <i type="logical" name="LMODELHF"> F  </i>
   <i name="ENCUTFOCK">      0.00000000</i>
   <i name="ENCUT4O">     -1.00000000</i>
   <i type="int" name="EXXOEP">     0</i>
   <i type="int" name="FOURORBIT">     0</i>
   <i name="AEXX">      0.00000000</i>
   <i name="HFALPHA">      0.00000000</i>
   <i name="ALDAX">      1.00000000</i>
   <i name="AGGAX">      1.00000000</i>
   <i name="ALDAC">      1.00000000</i>
   <i name="AGGAC">      1.00000000</i>
   <i type="int" name="NKREDX">     1</i>
   <i type="int" name="NKREDY">     1</i>
   <i type="int" name="NKREDZ">     1</i>
   <i type="logical" name="SHIFTRED"> F  </i>
   <i type="logical" name="ODDONLY"> F  </i>
   <i type="logical" name="EVENONLY"> F  </i>
   <i type="int" name="LMAXFOCK">     0</i>
   <i type="int" name="NMAXFOCKAE">     0</i>
   <i name="HFSCREEN">      0.00000000</i>
   <i name="HFSCREENC">      0.00000000</i>
  </separator>
  <separator name="model GW" >
   <i type="int" name="MODEL_GW">     0</i>
   <i name="MODEL_EPS0">      9.96451875</i>
   <i name="MODEL_ALPHA">      1.00000000</i>
  </separator>
  <separator name="linear response parameters" >
   <i type="logical" name="LEPSILON"> F  </i>
   <i type="logical" name="LRPA"> F  </i>
   <i type="logical" name="LNABLA"> F  </i>
   <i type="logical" name="LVEL"> F  </i>
   <i type="int" name="KINTER">     0</i>
   <i name="CSHIFT">      0.10000000</i>
   <i name="OMEGAMAX">     -1.00000000</i>
  </separator>
  <separator name="orbital magnetization" >
   <i type="logical" name="ORBITALMAG"> F  </i>
   <i type="logical" name="LMAGBLOCH"> F  </i>
   <i type="logical" name="LCHIMAG"> F  </i>
   <i type="logical" name="LGAUGE"> T  </i>
   <i type="int" name="MAGATOM">     0</i>
   <v name="MAGDIPOL">      0.00000000      0.00000000      0.00000000</v>
   <v name="AVECCONST">      0.00000000      0.00000000      0.00000000</v>
  </separator>
  <separator name="response functions" >
   <i type="logical" name="LRPA"> T  </i>
   <i type="logical" name="LTCTE"> F  </i>
   <i type="logical" name="LTETE"> F  </i>
   <i type="logical" name="L2ORDER"> F  </i>
   <i type="logical" name="LGWLF"> F  </i>
   <i name="ENCUTGW">    200.00000000</i>
   <i name="ENCUTGWSOFT">     -2.00000000</i>
   <i name="ENCUTLF">     -1.00000000</i>
   <i type="int" name="LMAXMP2">    -1</i>
   <i name="SCISSOR">      0.00000000</i>
   <i type="int" name="NOMEGA">     0</i>
   <i type="int" name="NOMEGAR">     0</i>
   <i type="int" name="NBANDSGW">    -1</i>
   <i type="int" name="NBANDSLF">    -1</i>
   <i type="int" name="NELM">     1</i>
   <i type="int" name="DIM">     3</i>
   <i type="int" name="ANTIRES">     0</i>
   <i type="logical" name="LUSEW"> F  </i>
   <i name="OMEGAMAX">    -30.00000000</i>
   <i name="OMEGATL">   -200.00000000</i>
   <i type="int" name="OMEGAGRID">     0</i>
   <i name="CSHIFT">     -0.10000000</i>
   <i type="logical" name="SELFENERGY"> F  </i>
   <i type="logical" name="LSPECTRAL"> F  </i>
   <i type="logical" name="ODDONLYGW"> F  </i>
   <i type="logical" name="EVENONLYGW"> F  </i>
   <i type="int" name="NKREDLFX">     1</i>
   <i type="int" name="NKREDLFY">     1</i>
   <i type="int" name="NKREDLFZ">     1</i>
   <i type="int" name="MAXMEM">  1024</i>
   <i type="int" name="TELESCOPE">     0</i>
  </separator>
 </parameters>
 <atominfo>
  <atoms>      32 </atoms>
  <types>       1 </types>
  <array name="atoms" >
   <dimension dim="1">ion</dimension>
   <field type="string">element</field>
   <field type="int">atomtype</field>
   <set>
    <rc><c>Al</c><c>   1</c></rc>
    <rc><c>Al</c><c>   1</c></rc>
    <rc><c>Al</c><c>   1</c></rc>
    <rc><c>Al</c><c>   1</c></rc>
    <rc><c>Al</c><c>   1</c></rc>
    <rc><c>Al</c><c>   1</c></rc>
    <rc><c>Al</c><c>   1</c></rc>
    <rc><c>Al</c><c>   1</c></rc>
    <rc><c>Al</c><c>   1</c></rc>
    <rc><c>Al</c><c>   1</c></rc>
    <rc><c>Al</c><c>   1</c></rc>
    <rc><c>Al</c><c>   1</c></rc>
    <rc><c>Al</c><c>   1</c></rc>
    <rc><c>Al</c><c>   1</c></rc>
    <rc><c>Al</c><c>   1</c></rc>
    <rc><c>Al</c><c>   1</c></rc>
    <rc><c>Al</c><c>   1</c></rc>
    <rc><c>Al</c><c>   1</c></rc>
    <rc><c>Al</c><c>   1</c></rc>
    <rc><c>Al</c><c>   1</c></rc>
    <rc><c>Al</c><c>   1</c></rc>
    <rc><c>Al</c><c>   1</c></rc>
    <rc><c>Al</c><c>   1</c></rc>
    <rc><c>Al</c><c>   1</c></rc>
    <rc><c>Al</c><c>   1</c></rc>
    <rc><c>Al</c><c>   1</c></rc>
    <rc><c>Al</c><c>   1</c></rc>
    <rc><c>Al</c><c>   1</c></rc>
    <rc><c>Al</c><c>   1</c></rc>
    <rc><c>Al</c><c>   1</c></rc>
    <rc><c>Al</c><c>   1</c></rc>
    <rc><c>Al</c><c>   1</c></rc>
   </set>
  </array>
  <array name="atomtypes" >
   <dimension dim="1">type</dimension>
   <field type="int">atomspertype</field>
   <field type="string">element</field>
   <field>mass</field>
   <field>valence</field>
   <field type="string">pseudopotential</field>
   <set>
    <rc><c>  32</c><c>Al</c><c>     26.98200000</c><c>      3.00000000</c><c> PAW_PBE Al 04Jan2001                   </c></rc>
   </set>
  </array>
 </atominfo>
 <structure name="initialpos" >
  <crystal>
   <varray name="basis" >
    <v>       8.10000000       0.00000000       0.00000000 </v>
    <v>       0.00000000       8.10000000       0.00000000 </v>
    <v>       0.00000000       0.00000000       8.10000000 </v>
   </varray>
   <i name="volume">    531.44100000 </i>
   <varray name="rec_basis" >
    <v>       0.12345679       0.00000000       0.00000000 </v>
    <v>       0.00000000       0.12345679       0.00000000 </v>
    <v>       0.00000000       0.00000000       0.12345679 </v>
   </varray>
  </crystal>
  <varray name="positions" >
   <v>       0.00000000       0.00000000       0.00000000 </v>
   <v>       0.25000000       0.00000000       0.25000000 </v>
   <v>       0.25000000       0.25000000       0.00000000 </v>
   <v>       0.00000000       0.25000000       0.25000000 </v>
   <v>       0.50000000       0.00000000       0.00000000 </v>
   <v>       0.75000000       0.00000000       0.25000000 </v>
   <v>       0.75000000       0.25000000       0.00000000 </v>
   <v>       0.50000000       0.25000000       0.25000000 </v>
   <v>       0.00000000       0.50000000       0.00000000 </v>
   <v>       0.25000000       0.50000000       0.25000000 </v>
   <v>       0.25000000       0.75000000       0.00000000 </v>
   <v>       0.00000000       0.75000000       0.25000000 </v>
   <v>       0.50000000       0.50000000       0.00000000 </v>
   <v>       0.75000000       0.50000000       0.25000000 </v>
   <v>       0.75000000       0.75000000       0.00000000 </v>
   <v>       0.50000000       0.75000000       0.25000000 </v>
   <v>       0.00000000       0.00000000       0.50000000 </v>
   <v>       0.25000000       0.00000000       0.75000000 </v>
   <v>       0.25000000       0.25000000       0.50000000 </v>
   <v>       0.00000000       0.25000000       0.75000000 </v>
   <v>       0.50000000       0.00000000       0.50000000 </v>
   <v>       0.75000000       0.00000000       0.75000000 </v>
   <v>       0.75000000       0.25000000       0.50000000 </v>
   <v>       0.50000000       0.25000000       0.75000000 </v>
   <v>       0.00000000       0.50000000       0.50000000 </v>
   <v>       0.25000000       0.50000000       0.75000000 </v>
   <v>       0.25000000       0.75000000       0.50000000 </v>
   <v>       0.00000000       0.75000000       0.75000000 </v>
   <v>       0.50000000       0.50000000       0.50000000 </v>
   <v>       0.75000000       0.50000000       0.75000000 </v>
   <v>       0.75000000       0.75000000       0.50000000 </v>
   <v>       0.50000000       0.75000000       0.75000000 </v>
  </varray>
 </structure>
 <calculation>
  <scstep>
   <time name="diag">    8.44    8.44</time>
   <time name="diis">   31.50   31.55</time>
   <time name="orth">    0.12    0.12</time>
   <time name="total">   51.23   51.29</time>
   <energy>
    <i name="alphaZ">     -6.47188209 </i>
    <i name="ewald">  -2347.41496354 </i>
    <i name="hartreedc">     -3.32377371 </i>
    <i name="XCdc">   -840.04563207 </i>
    <i name="pawpsdc">   1137.73615723 </i>
    <i name="pawaedc">   -115.16745734 </i>
    <i name="eentropy">     -0.08949379 </i>
    <i name="bandstr">    613.98552077 </i>
    <i name="atom">   1713.20396807 </i>
    <i name="e_fr_energy">    152.41244353 </i>
    <i name="e_wo_entrp">    152.50193732 </i>
    <i name="e_0_energy">    152.44227479 </i>
   </energy>
  </scstep>
  <scstep>
   <time name="diag">    0.18    0.18</time>
   <time name="diis">   11.78   11.78</time>
   <time name="orth">    0.01    0.01</time>
   <time name="total">   11.97   11.98</time>
   <energy>
    <i name="e_fr_energy">    -52.60176076 </i>
    <i name="e_wo_entrp">    -52.38184141 </i>
    <i name="e_0_energy">    -52.52845431 </i>
   </energy>
  </scstep>
  <scstep>
   <time name="diag">    0.12    0.12</time>
   <time name="diis">    0.17    0.17</time>
   <time name="orth">    0.01    0.01</time>
   <time name="total">    0.31    0.31</time>
   <energy>
    <i name="e_fr_energy">    -87.67170147 </i>
    <i name="e_wo_entrp">    -87.55670156 </i>
    <i name="e_0_energy">    -87.63336816 </i>
   </energy>
  </scstep>
  <scstep>
   <time name="diag">    0.10    0.11</time>
   <time name="diis">    0.17    0.17</time>
   <time name="orth">    0.01    0.01</time>
   <time name="total">    0.29    0.29</time>
   <energy>
    <i name="e_fr_energy">    -99.96506223 </i>
    <i name="e_wo_entrp">    -99.72092986 </i>
    <i name="e_0_energy">    -99.88368477 </i>
   </energy>
  </scstep>
  <scstep>
   <time name="diag">    0.09    0.09</time>
   <time name="diis">    0.17    0.17</time>
   <time name="orth">    0.01    0.01</time>
   <time name="total">    0.31    0.31</time>
   <energy>
    <i name="e_fr_energy">   -102.78959335 </i>
    <i name="e_wo_entrp">   -102.45967042 </i>
    <i name="e_0_energy">   -102.67961904 </i>
   </energy>
  </scstep>
  <scstep>
   <time name="diag">    0.10    0.10</time>
   <time name="diis">    0.17    0.17</time>
   <time name="orth">    0.01    0.01</time>
   <time name="total">    0.29    0.29</time>
   <energy>
    <i name="e_fr_energy">   -103.33042368 </i>
    <i name="e_wo_entrp">   -102.99244287 </i>
    <i name="e_0_energy">   -103.21776341 </i>
   </energy>
  </scstep>
  <scstep>
   <time name="diag">    0.11    0.11</time>
   <time name="diis">    0.17    0.17</time>
   <time name="orth">    0.01    0.01</time>
   <time name="total">    0.35    0.69</time>
   <energy>
    <i name="e_fr_energy">   -103.41792038 </i>
    <i name="e_wo_entrp">   -103.07942589 </i>
    <i name="e_0_energy">   -103.30508888 </i>
   </energy>
  </scstep>
  <scstep>
   <time name="diag">    0.11    0.11</time>
   <time name="diis">    0.17    0.17</time>
   <time name="orth">    0.01    0.01</time>
   <time name="total">    0.29    0.29</time>
   <energy>
    <i name="e_fr_energy">   -103.43071594 </i>
    <i name="e_wo_entrp">   -103.09220276 </i>
    <i name="e_0_energy">   -103.31787821 </i>
   </energy>
  </scstep>
  <scstep>
   <time name="diag">    0.10    0.10</time>
   <time name="diis">    0.31    0.31</time>
   <time name="orth">    0.01    0.01</time>
   <time name="total">    0.42    0.43</time>
   <energy>
    <i name="e_fr_energy">   -103.43300006 </i>
    <i name="e_wo_entrp">   -103.09448632 </i>
    <i name="e_0_energy">   -103.32016215 </i>
   </energy>
  </scstep>
  <scstep>
   <time name="diag">    0.10    0.10</time>
   <time name="diis">    0.29    0.29</time>
   <time name="orth">    0.01    0.01</time>
   <time name="total">    0.42    0.43</time>
   <energy>
    <i name="e_fr_energy">   -103.43312166 </i>
    <i name="e_wo_entrp">   -103.09460791 </i>
    <i name="e_0_energy">   -103.32028374 </i>
   </energy>
  </scstep>
  <scstep>
   <time name="diag">    0.08    0.09</time>
   <time name="diis">    0.24    0.25</time>
   <time name="orth">    0.01    0.01</time>
   <time name="total">    0.40    0.41</time>
   <energy>
    <i name="e_fr_energy">   -103.43312512 </i>
    <i name="e_wo_entrp">   -103.09461137 </i>
    <i name="e_0_energy">   -103.32028720 </i>
   </energy>
  </scstep>
  <scstep>
   <time name="diag">    0.10    0.10</time>
   <time name="diis">    0.22    0.22</time>
   <time name="orth">    0.01    0.01</time>
   <time name="total">    5.02    5.03</time>
   <energy>
    <i name="e_fr_energy">   -103.43312594 </i>
    <i name="e_wo_entrp">   -103.09461219 </i>
    <i name="e_0_energy">   -103.32028802 </i>
   </energy>
  </scstep>
  <scstep>
   <time name="diag">    0.08    0.09</time>
   <time name="diis">    0.99    0.99</time>
   <time name="orth">    0.01    0.01</time>
   <time name="total">    2.90    2.91</time>
   <energy>
    <i name="e_fr_energy">   -102.88852084 </i>
    <i name="e_wo_entrp">   -102.55000710 </i>
    <i name="e_0_energy">   -102.77568293 </i>
   </energy>
  </scstep>
  <scstep>
   <time name="diag">    0.09    0.09</time>
   <time name="diis">    0.31    0.31</time>
   <time name="orth">    0.01    0.01</time>
   <time name="total">    0.96    0.97</time>
   <energy>
    <i name="e_fr_energy">   -102.47855024 </i>
    <i name="e_wo_entrp">   -102.14003658 </i>
    <i name="e_0_energy">   -102.36571235 </i>
   </energy>
  </scstep>
  <scstep>
   <time name="diag">    0.08    0.09</time>
   <time name="diis">    0.31    0.31</time>
   <time name="orth">    0.01    0.01</time>
   <time name="total">    0.81    0.82</time>
   <energy>
    <i name="e_fr_energy">   -102.47860168 </i>
    <i name="e_wo_entrp">   -102.14008802 </i>
    <i name="e_0_energy">   -102.36576379 </i>
   </energy>
  </scstep>
  <scstep>
   <time name="diag">    0.08    0.08</time>
   <time name="diis">    0.23    0.23</time>
   <time name="orth">    0.01    0.01</time>
   <time name="total">    0.41    0.41</time>
   <energy>
    <i name="alphaZ">     -6.47188209 </i>
    <i name="ewald">  -2347.41496354 </i>
    <i name="hartreedc">     -3.50579168 </i>
    <i name="XCdc">   -836.15828471 </i>
    <i name="pawpsdc">   1132.94255732 </i>
    <i name="pawaedc">   -110.42301246 </i>
    <i name="eentropy">     -0.33851366 </i>
    <i name="bandstr">    355.68732217 </i>
    <i name="atom">   1713.20396807 </i>
    <i name="e_fr_energy">   -102.47860058 </i>
    <i name="e_wo_entrp">   -102.14008692 </i>
    <i name="e_0_energy">   -102.36576270 </i>
   </energy>
  </scstep>
  <structure>
   <crystal>
    <varray name="basis" >
     <v>       8.10000000       0.00000000       0.00000000 </v>
     <v>       0.00000000       8.10000000       0.00000000 </v>
     <v>       0.00000000       0.00000000       8.10000000 </v>
    </varray>
    <i name="volume">    531.44100000 </i>
    <varray name="rec_basis" >
     <v>       0.12345679       0.00000000       0.00000000 </v>
     <v>       0.00000000       0.12345679       0.00000000 </v>
     <v>       0.00000000       0.00000000       0.12345679 </v>
    </varray>
   </crystal>
   <varray name="positions" >
    <v>       0.00000000       0.00000000       0.00000000 </v>
    <v>       0.25000000       0.00000000       0.25000000 </v>
    <v>       0.25000000       0.25000000       0.00000000 </v>
    <v>       0.00000000       0.25000000       0.25000000 </v>
    <v>       0.50000000       0.00000000       0.00000000 </v>
    <v>       0.75000000       0.00000000       0.25000000 </v>
    <v>       0.75000000       0.25000000       0.00000000 </v>
    <v>       0.50000000       0.25000000       0.25000000 </v>
    <v>       0.00000000       0.50000000       0.00000000 </v>
    <v>       0.25000000       0.50000000       0.25000000 </v>
    <v>       0.25000000       0.75000000       0.00000000 </v>
    <v>       0.00000000       0.75000000       0.25000000 </v>
    <v>       0.50000000       0.50000000       0.00000000 </v>
    <v>       0.75000000       0.50000000       0.25000000 </v>
    <v>       0.75000000       0.75000000       0.00000000 </v>
    <v>       0.50000000       0.75000000       0.25000000 </v>
    <v>       0.00000000       0.00000000       0.50000000 </v>
    <v>       0.25000000       0.00000000       0.75000000 </v>
    <v>       0.25000000       0.25000000       0.50000000 </v>
    <v>       0.00000000       0.25000000       0.75000000 </v>
    <v>       0.50000000       0.00000000       0.50000000 </v>
    <v>       0.75000000       0.00000000       0.75000000 </v>
    <v>       0.75000000       0.25000000       0.50000000 </v>
    <v>       0.50000000       0.25000000       0.75000000 </v>
    <v>       0.00000000       0.50000000       0.50000000 </v>
    <v>       0.25000000       0.50000000       0.75000000 </v>
    <v>       0.25000000       0.75000000       0.50000000 </v>
    <v>       0.00000000       0.75000000       0.75000000 </v>
    <v>       0.50000000       0.50000000       0.50000000 </v>
    <v>       0.75000000       0.50000000       0.75000000 </v>
    <v>       0.75000000       0.75000000       0.50000000 </v>
    <v>       0.50000000       0.75000000       0.75000000 </v>
   </varray>
  </structure>
  <varray name="forces" >
   <v>       0.00000000       0.00000000       0.00000000 </v>
   <v>       0.00000000       0.00000000       0.00000000 </v>
   <v>       0.00000000       0.00000000       0.00000000 </v>
   <v>       0.00000000       0.00000000       0.00000000 </v>
   <v>       0.00000000       0.00000000       0.00000000 </v>
   <v>       0.00000000       0.00000000       0.00000000 </v>
   <v>       0.00000000       0.00000000       0.00000000 </v>
   <v>       0.00000000       0.00000000       0.00000000 </v>
   <v>       0.00000000       0.00000000       0.00000000 </v>
   <v>       0.00000000       0.00000000       0.00000000 </v>
   <v>       0.00000000       0.00000000       0.00000000 </v>
   <v>       0.00000000       0.00000000       0.00000000 </v>
   <v>       0.00000000       0.00000000       0.00000000 </v>
   <v>       0.00000000       0.00000000       0.00000000 </v>
   <v>       0.00000000       0.00000000       0.00000000 </v>
   <v>       0.00000000       0.00000000       0.00000000 </v>
   <v>       0.00000000       0.00000000       0.00000000 </v>
   <v>       0.00000000       0.00000000       0.00000000 </v>
   <v>       0.00000000       0.00000000       0.00000000 </v>
   <v>       0.00000000       0.00000000       0.00000000 </v>
   <v>       0.00000000       0.00000000       0.00000000 </v>
   <v>       0.00000000       0.00000000       0.00000000 </v>
   <v>       0.00000000       0.00000000       0.00000000 </v>
   <v>       0.00000000       0.00000000       0.00000000 </v>
   <v>       0.00000000       0.00000000       0.00000000 </v>
   <v>       0.00000000       0.00000000       0.00000000 </v>
   <v>       0.00000000       0.00000000       0.00000000 </v>
   <v>       0.00000000       0.00000000       0.00000000 </v>
   <v>       0.00000000       0.00000000       0.00000000 </v>
   <v>       0.00000000       0.00000000       0.00000000 </v>
   <v>       0.00000000       0.00000000       0.00000000 </v>
   <v>       0.00000000       0.00000000       0.00000000 </v>
  </varray>
  <varray name="stress" >
   <v>     -37.57092127       0.00000000       0.00000000 </v>
   <v>       0.00000000     -37.57092127       0.00000000 </v>
   <v>       0.00000000       0.00000000     -37.57092127 </v>
  </varray>
  <energy>
   <i name="e_fr_energy">   -102.47860058 </i>
   <i name="e_wo_entrp">   -102.36576270 </i>
   <i name="e_0_energy">     -0.33851366 </i>
  </energy>
  <time name="totalsc">   78.66   79.13</time>
 </calculation>
 <calculation>
  <scstep>
   <time name="diag">    0.08    0.09</time>
   <time name="diis">    0.31    0.31</time>
   <time name="orth">    0.01    0.01</time>
   <time name="total">    1.18    1.19</time>
   <energy>
    <i name="alphaZ">     -6.85080917 </i>
    <i name="ewald">  -2392.36235509 </i>
    <i name="hartreedc">     -3.57396240 </i>
    <i name="XCdc">   -833.17658804 </i>
    <i name="pawpsdc">   1132.84771982 </i>
    <i name="pawaedc">   -110.32661205 </i>
    <i name="eentropy">     -0.33851375 </i>
    <i name="bandstr">    397.84346362 </i>
    <i name="atom">   1713.20396807 </i>
    <i name="e_fr_energy">   -102.73368899 </i>
    <i name="e_wo_entrp">   -102.39517524 </i>
    <i name="e_0_energy">   -102.62085107 </i>
   </energy>
  </scstep>
  <scstep>
   <time name="diag">    0.08    0.08</time>
   <time name="diis">    0.31    0.31</time>
   <time name="orth">    0.01    0.01</time>
   <time name="total">    0.80    0.80</time>
   <energy>
    <i name="e_fr_energy">   -102.71545990 </i>
    <i name="e_wo_entrp">   -102.37694616 </i>
    <i name="e_0_energy">   -102.60262199 </i>
   </energy>
  </scstep>
  <scstep>
   <time name="diag">    0.08    0.08</time>
   <time name="diis">    0.31    0.31</time>
   <time name="orth">    0.01    0.01</time>
   <time name="total">    2.97    2.98</time>
   <energy>
    <i name="e_fr_energy">   -102.70244127 </i>
    <i name="e_wo_entrp">   -102.36392752 </i>
    <i name="e_0_energy">   -102.58960336 </i>
   </energy>
  </scstep>
  <scstep>
   <time name="diag">    0.18    0.18</time>
   <time name="diis">    0.40    0.40</time>
   <time name="orth">    0.01    0.01</time>
   <time name="total">    1.05    1.06</time>
   <energy>
    <i name="alphaZ">     -6.85080917 </i>
    <i name="ewald">  -2392.36235509 </i>
    <i name="hartreedc">     -3.88729862 </i>
    <i name="XCdc">   -832.50271654 </i>
    <i name="pawpsdc">   1139.46228187 </i>
    <i name="pawaedc">   -117.28619582 </i>
    <i name="eentropy">     -0.33851375 </i>
    <i name="bandstr">    397.85918532 </i>
    <i name="atom">   1713.20396807 </i>
    <i name="e_fr_energy">   -102.70245373 </i>
    <i name="e_wo_entrp">   -102.36393998 </i>
    <i name="e_0_energy">   -102.58961581 </i>
   </energy>
  </scstep>
  <structure>
   <crystal>
    <varray name="basis" >
     <v>       7.94781826       0.00000000       0.00000000 </v>
     <v>       0.00000000       7.94781826       0.00000000 </v>
     <v>       0.00000000       0.00000000       7.94781826 </v>
    </varray>
    <i name="volume">    502.04631380 </i>
    <varray name="rec_basis" >
     <v>       0.12582069       0.00000000       0.00000000 </v>
     <v>       0.00000000       0.12582069       0.00000000 </v>
     <v>       0.00000000       0.00000000       0.12582069 </v>
    </varray>
   </crystal>
   <varray name="positions" >
    <v>       0.00000000       0.00000000       0.00000000 </v>
    <v>       0.25000000       0.00000000       0.25000000 </v>
    <v>       0.25000000       0.25000000       0.00000000 </v>
    <v>       0.00000000       0.25000000       0.25000000 </v>
    <v>       0.50000000       0.00000000       0.00000000 </v>
    <v>       0.75000000       0.00000000       0.25000000 </v>
    <v>       0.75000000       0.25000000       0.00000000 </v>
    <v>       0.50000000       0.25000000       0.25000000 </v>
    <v>       0.00000000       0.50000000       0.00000000 </v>
    <v>       0.25000000       0.50000000       0.25000000 </v>
    <v>       0.25000000       0.75000000       0.00000000 </v>
    <v>       0.00000000       0.75000000       0.25000000 </v>
    <v>       0.50000000       0.50000000       0.00000000 </v>
    <v>       0.75000000       0.50000000       0.25000000 </v>
    <v>       0.75000000       0.75000000       0.00000000 </v>
    <v>       0.50000000       0.75000000       0.25000000 </v>
    <v>       0.00000000       0.00000000       0.50000000 </v>
    <v>       0.25000000       0.00000000       0.75000000 </v>
    <v>       0.25000000       0.25000000       0.50000000 </v>
    <v>       0.00000000       0.25000000       0.75000000 </v>
    <v>       0.50000000       0.00000000       0.50000000 </v>
    <v>       0.75000000       0.00000000       0.75000000 </v>
    <v>       0.75000000       0.25000000       0.50000000 </v>
    <v>       0.50000000       0.25000000       0.75000000 </v>
    <v>       0.00000000       0.50000000       0.50000000 </v>
    <v>       0.25000000       0.50000000       0.75000000 </v>
    <v>       0.25000000       0.75000000       0.50000000 </v>
    <v>       0.00000000       0.75000000       0.75000000 </v>
    <v>       0.50000000       0.50000000       0.50000000 </v>
    <v>       0.75000000       0.50000000       0.75000000 </v>
    <v>       0.75000000       0.75000000       0.50000000 </v>
    <v>       0.50000000       0.75000000       0.75000000 </v>
   </varray>
  </structure>
  <varray name="forces" >
   <v>       0.00000000       0.00000000       0.00000000 </v>
   <v>       0.00000000       0.00000000       0.00000000 </v>
   <v>       0.00000000       0.00000000       0.00000000 </v>
   <v>       0.00000000       0.00000000       0.00000000 </v>
   <v>       0.00000000       0.00000000       0.00000000 </v>
   <v>       0.00000000       0.00000000       0.00000000 </v>
   <v>       0.00000000       0.00000000       0.00000000 </v>
   <v>       0.00000000       0.00000000       0.00000000 </v>
   <v>       0.00000000       0.00000000       0.00000000 </v>
   <v>       0.00000000       0.00000000       0.00000000 </v>
   <v>       0.00000000       0.00000000       0.00000000 </v>
   <v>       0.00000000       0.00000000       0.00000000 </v>
   <v>       0.00000000       0.00000000       0.00000000 </v>
   <v>       0.00000000       0.00000000       0.00000000 </v>
   <v>       0.00000000       0.00000000       0.00000000 </v>
   <v>       0.00000000       0.00000000       0.00000000 </v>
   <v>       0.00000000       0.00000000       0.00000000 </v>
   <v>       0.00000000       0.00000000       0.00000000 </v>
   <v>       0.00000000       0.00000000       0.00000000 </v>
   <v>       0.00000000       0.00000000       0.00000000 </v>
   <v>       0.00000000       0.00000000       0.00000000 </v>
   <v>       0.00000000       0.00000000       0.00000000 </v>
   <v>       0.00000000       0.00000000       0.00000000 </v>
   <v>       0.00000000       0.00000000       0.00000000 </v>
   <v>       0.00000000       0.00000000       0.00000000 </v>
   <v>       0.00000000       0.00000000       0.00000000 </v>
   <v>       0.00000000       0.00000000       0.00000000 </v>
   <v>       0.00000000       0.00000000       0.00000000 </v>
   <v>       0.00000000       0.00000000       0.00000000 </v>
   <v>       0.00000000       0.00000000       0.00000000 </v>
   <v>       0.00000000       0.00000000       0.00000000 </v>
   <v>       0.00000000       0.00000000       0.00000000 </v>
  </varray>
  <varray name="stress" >
   <v>      15.72738085       0.00000000       0.00000000 </v>
   <v>       0.00000000      15.72738085       0.00000000 </v>
   <v>       0.00000000       0.00000000      15.72738085 </v>
  </varray>
  <energy>
   <i name="e_fr_energy">   -102.70245373 </i>
   <i name="e_wo_entrp">   -102.58961581 </i>
   <i name="e_0_energy">     -0.33851375 </i>
  </energy>
  <time name="totalsc">    6.93    7.16</time>
 </calculation>
 <calculation>
  <scstep>
   <time name="diag">    0.08    0.08</time>
   <time name="diis">    0.31    0.31</time>
   <time name="orth">    0.01    0.01</time>
   <time name="total">    0.76    0.77</time>
   <energy>
    <i name="alphaZ">     -6.74584154 </i>
    <i name="ewald">  -2380.08087771 </i>
    <i name="hartreedc">     -3.87327349 </i>
    <i name="XCdc">   -833.31506441 </i>
    <i name="pawpsdc">   1139.32448287 </i>
    <i name="pawaedc">   -117.14697669 </i>
    <i name="eentropy">     -0.33851375 </i>
    <i name="bandstr">    386.22913410 </i>
    <i name="atom">   1713.20396807 </i>
    <i name="e_fr_energy">   -102.74296256 </i>
    <i name="e_wo_entrp">   -102.40444881 </i>
    <i name="e_0_energy">   -102.63012464 </i>
   </energy>
  </scstep>
  <scstep>
   <time name="diag">    0.18    0.18</time>
   <time name="diis">    0.43    0.43</time>
   <time name="orth">    0.01    0.01</time>
   <time name="total">    1.25    1.26</time>
   <energy>
    <i name="e_fr_energy">   -102.74156716 </i>
    <i name="e_wo_entrp">   -102.40305341 </i>
    <i name="e_0_energy">   -102.62872925 </i>
   </energy>
  </scstep>
  <scstep>
   <time name="diag">    0.08    0.08</time>
   <time name="diis">    0.29    0.29</time>
   <time name="orth">    0.01    0.01</time>
   <time name="total">    0.73    0.74</time>
   <energy>
    <i name="e_fr_energy">   -102.74051602 </i>
    <i name="e_wo_entrp">   -102.40200227 </i>
    <i name="e_0_energy">   -102.62767811 </i>
   </energy>
  </scstep>
  <scstep>
   <time name="diag">    0.09    0.09</time>
   <time name="diis">    0.22    0.22</time>
   <time name="orth">    0.01    0.01</time>
   <time name="total">    0.38    0.38</time>
   <energy>
    <i name="alphaZ">     -6.74584154 </i>
    <i name="ewald">  -2380.08087771 </i>
    <i name="hartreedc">     -3.77776402 </i>
    <i name="XCdc">   -833.49185546 </i>
    <i name="pawpsdc">   1137.37811155 </i>
    <i name="pawaedc">   -115.10202925 </i>
    <i name="eentropy">     -0.33851375 </i>
    <i name="bandstr">    386.21428088 </i>
    <i name="atom">   1713.20396807 </i>
    <i name="e_fr_energy">   -102.74052124 </i>
    <i name="e_wo_entrp">   -102.40200749 </i>
    <i name="e_0_energy">   -102.62768332 </i>
   </energy>
  </scstep>
  <structure>
   <crystal>
    <varray name="basis" >
     <v>       7.98882987       0.00000000       0.00000000 </v>
     <v>       0.00000000       7.98882987       0.00000000 </v>
     <v>       0.00000000       0.00000000       7.98882987 </v>
    </varray>
    <i name="volume">    509.85832783 </i>
    <varray name="rec_basis" >
     <v>       0.12517478       0.00000000       0.00000000 </v>
     <v>       0.00000000       0.12517478       0.00000000 </v>
     <v>       0.00000000       0.00000000       0.12517478 </v>
    </varray>
   </crystal>
   <varray name="positions" >
    <v>       0.00000000       0.00000000       0.00000000 </v>
    <v>       0.25000000       0.00000000       0.25000000 </v>
    <v>       0.25000000       0.25000000       0.00000000 </v>
    <v>       0.00000000       0.25000000       0.25000000 </v>
    <v>       0.50000000       0.00000000       0.00000000 </v>
    <v>       0.75000000       0.00000000       0.25000000 </v>
    <v>       0.75000000       0.25000000       0.00000000 </v>
    <v>       0.50000000       0.25000000       0.25000000 </v>
    <v>       0.00000000       0.50000000       0.00000000 </v>
    <v>       0.25000000       0.50000000       0.25000000 </v>
    <v>       0.25000000       0.75000000       0.00000000 </v>
    <v>       0.00000000       0.75000000       0.25000000 </v>
    <v>       0.50000000       0.50000000       0.00000000 </v>
    <v>       0.75000000       0.50000000       0.25000000 </v>
    <v>       0.75000000       0.75000000       0.00000000 </v>
    <v>       0.50000000       0.75000000       0.25000000 </v>
    <v>       0.00000000       0.00000000       0.50000000 </v>
    <v>       0.25000000       0.00000000       0.75000000 </v>
    <v>       0.25000000       0.25000000       0.50000000 </v>
    <v>       0.00000000       0.25000000       0.75000000 </v>
    <v>       0.50000000       0.00000000       0.50000000 </v>
    <v>       0.75000000       0.00000000       0.75000000 </v>
    <v>       0.75000000       0.25000000       0.50000000 </v>
    <v>       0.50000000       0.25000000       0.75000000 </v>
    <v>       0.00000000       0.50000000       0.50000000 </v>
    <v>       0.25000000       0.50000000       0.75000000 </v>
    <v>       0.25000000       0.75000000       0.50000000 </v>
    <v>       0.00000000       0.75000000       0.75000000 </v>
    <v>       0.50000000       0.50000000       0.50000000 </v>
    <v>       0.75000000       0.50000000       0.75000000 </v>
    <v>       0.75000000       0.75000000       0.50000000 </v>
    <v>       0.50000000       0.75000000       0.75000000 </v>
   </varray>
  </structure>
  <varray name="forces" >
   <v>       0.00000000       0.00000000       0.00000000 </v>
   <v>       0.00000000       0.00000000       0.00000000 </v>
   <v>       0.00000000       0.00000000       0.00000000 </v>
   <v>       0.00000000       0.00000000       0.00000000 </v>
   <v>       0.00000000       0.00000000       0.00000000 </v>
   <v>       0.00000000       0.00000000       0.00000000 </v>
   <v>       0.00000000       0.00000000       0.00000000 </v>
   <v>       0.00000000       0.00000000       0.00000000 </v>
   <v>       0.00000000       0.00000000       0.00000000 </v>
   <v>       0.00000000       0.00000000       0.00000000 </v>
   <v>       0.00000000       0.00000000       0.00000000 </v>
   <v>       0.00000000       0.00000000       0.00000000 </v>
   <v>       0.00000000       0.00000000       0.00000000 </v>
   <v>       0.00000000       0.00000000       0.00000000 </v>
   <v>       0.00000000       0.00000000       0.00000000 </v>
   <v>       0.00000000       0.00000000       0.00000000 </v>
   <v>       0.00000000       0.00000000       0.00000000 </v>
   <v>       0.00000000       0.00000000       0.00000000 </v>
   <v>       0.00000000       0.00000000       0.00000000 </v>
   <v>       0.00000000       0.00000000       0.00000000 </v>
   <v>       0.00000000       0.00000000       0.00000000 </v>
   <v>       0.00000000       0.00000000       0.00000000 </v>
   <v>       0.00000000       0.00000000       0.00000000 </v>
   <v>       0.00000000       0.00000000       0.00000000 </v>
   <v>       0.00000000       0.00000000       0.00000000 </v>
   <v>       0.00000000       0.00000000       0.00000000 </v>
   <v>       0.00000000       0.00000000       0.00000000 </v>
   <v>       0.00000000       0.00000000       0.00000000 </v>
   <v>       0.00000000       0.00000000       0.00000000 </v>
   <v>       0.00000000       0.00000000       0.00000000 </v>
   <v>       0.00000000       0.00000000       0.00000000 </v>
   <v>       0.00000000       0.00000000       0.00000000 </v>
  </varray>
  <varray name="stress" >
   <v>       0.08881348       0.00000000       0.00000000 </v>
   <v>       0.00000000       0.08881348       0.00000000 </v>
   <v>       0.00000000       0.00000000       0.08881348 </v>
  </varray>
  <energy>
   <i name="e_fr_energy">   -102.74052124 </i>
   <i name="e_wo_entrp">   -102.62768332 </i>
   <i name="e_0_energy">     -0.33851375 </i>
  </energy>
  <time name="totalsc">    3.98    4.09</time>
  <eigenvalues>
   <array>
    <dimension dim="1">band</dimension>
    <dimension dim="2">kpoint</dimension>
    <dimension dim="3">spin</dimension>
    <field>eigene</field>
    <field>occ</field>
    <set>
     <set comment="spin 1">
      <set comment="kpoint 1">
       <r>   -3.0123    1.0000 </r>
       <r>   -0.7128    1.0000 </r>
       <r>   -0.7128    1.0000 </r>
       <r>   -0.7128    1.0000 </r>
       <r>   -0.7128    1.0000 </r>
       <r>   -0.7128    1.0000 </r>
       <r>   -0.7128    1.0000 </r>
       <r>    1.5491    1.0000 </r>
       <r>    1.5491    1.0000 </r>
       <r>    1.5491    1.0000 </r>
       <r>    1.5491    1.0000 </r>
       <r>    1.5491    1.0000 </r>
       <r>    1.5491    1.0000 </r>
       <r>    1.5491    1.0000 </r>
       <r>    1.5491    1.0000 </r>
       <r>    1.5491    1.0000 </r>
       <r>    1.5491    1.0000 </r>
       <r>    1.5491    1.0000 </r>
       <r>    1.5491    1.0000 </r>
       <r>    3.6358    1.0000 </r>
       <r>    3.6358    1.0000 </r>
       <r>    3.6358    1.0000 </r>
       <r>    3.6358    1.0000 </r>
       <r>    3.9365    1.0000 </r>
       <r>    3.9365    1.0000 </r>
       <r>    3.9365    1.0000 </r>
       <r>    3.9365    1.0000 </r>
       <r>    5.3567    1.0000 </r>
       <r>    5.3567    1.0000 </r>
       <r>    5.3567    1.0000 </r>
       <r>    6.7610    1.0000 </r>
       <r>    6.7610    1.0000 </r>
       <r>    6.7610    1.0000 </r>
       <r>    7.4762    1.0000 </r>
       <r>    7.4762    1.0000 </r>
       <r>    7.4762    1.0000 </r>
       <r>    7.4762    1.0000 </r>
       <r>    7.4762    1.0000 </r>
       <r>    7.4762    1.0000 </r>
       <r>    7.4762    1.0000 </r>
       <r>    7.4762    1.0000 </r>
       <r>    7.4762    1.0000 </r>
       <r>    7.4762    1.0000 </r>
       <r>    7.4762    1.0000 </r>
       <r>    7.4762    1.0000 </r>
       <r>    8.4832    0.5000 </r>
       <r>    8.4832    0.5000 </r>
       <r>    8.4832    0.5000 </r>
       <r>    8.4832    0.5000 </r>
       <r>    8.4832    0.5000 </r>
       <r>    8.4832    0.5000 </r>
       <r>    9.6034    0.0000 </r>
       <r>    9.6034    0.0000 </r>
       <r>    9.6034    0.0000 </r>
       <r>    9.6034    0.0000 </r>
       <r>    9.6034    0.0000 </r>
       <r>    9.6034    0.0000 </r>
       <r>    9.6034    0.0000 </r>
       <r>    9.6034    0.0000 </r>
       <r>    9.6034    0.0000 </r>
       <r>    9.6034    0.0000 </r>
       <r>    9.6034    0.0000 </r>
       <r>    9.6034    0.0000 </r>
       <r>    9.6592    0.0000 </r>
       <r>    9.6592    0.0000 </r>
       <r>    9.6592    0.0000 </r>
       <r>    9.6592    0.0000 </r>
       <r>    9.6592    0.0000 </r>
       <r>    9.6592    0.0000 </r>
       <r>   11.2274    0.0000 </r>
       <r>   11.2274    0.0000 </r>
       <r>   11.2274    0.0000 </r>
       <r>   11.2274    0.0000 </r>
       <r>   11.2274    0.0000 </r>
       <r>   11.2274    0.0000 </r>
       <r>   11.2274    0.0000 </r>
       <r>   11.2274    0.0000 </r>
       <r>   11.2274    0.0000 </r>
       <r>   11.2274    0.0000 </r>
       <r>   11.2274    0.0000 </r>
       <r>   11.2274    0.0000 </r>
       <r>   13.6565    0.0000 </r>
       <r>   13.6565    0.0000 </r>
       <r>   13.6565    0.0000 </r>
       <r>   14.1223    0.0000 </r>
       <r>   14.1223    0.0000 </r>
       <r>   14.1223    0.0000 </r>
       <r>   14.1223    0.0000 </r>
       <r>   14.1223    0.0000 </r>
       <r>   14.1223    0.0000 </r>
       <r>   15.9336    0.0000 </r>
       <r>   15.9380    0.0000 </r>
       <r>   15.9989    0.0000 </r>
       <r>   16.0369    0.0000 </r>
       <r>   16.0715    0.0000 </r>
       <r>   16.0779    0.0000 </r>
      </set>
     </set>
    </set>
   </array>
  </eigenvalues>
  <separator name="orbital magnetization" >
   <v name="MAGDIPOLOUT">      0.00000000      0.00000000      0.00000000</v>
  </separator>
  <dos>
   <i name="efermi">      8.48316821 </i>
   <total>
    <array>
     <dimension dim="1">gridpoints</dimension>
     <dimension dim="2">spin</dimension>
     <field>energy</field>
     <field>total</field>
     <field>integrated</field>
     <set>
      <set comment="spin 1">
       <r>  -5.0123   0.0000   0.0000 </r>
       <r>  -4.9354   0.0000   0.0000 </r>
       <r>  -4.8584   0.0000   0.0000 </r>
       <r>  -4.7814   0.0000   0.0000 </r>
       <r>  -4.7045   0.0000   0.0000 </r>
       <r>  -4.6275   0.0000   0.0000 </r>
       <r>  -4.5505   0.0000   0.0000 </r>
       <r>  -4.4736   0.0000   0.0000 </r>
       <r>  -4.3966   0.0000   0.0000 </r>
       <r>  -4.3196   0.0000   0.0000 </r>
       <r>  -4.2427   0.0000   0.0000 </r>
       <r>  -4.1657   0.0000   0.0000 </r>
       <r>  -4.0887   0.0000   0.0000 </r>
       <r>  -4.0118   0.0000   0.0000 </r>
       <r>  -3.9348   0.0000   0.0000 </r>
       <r>  -3.8578   0.0000   0.0000 </r>
       <r>  -3.7809   0.0000   0.0000 </r>
       <r>  -3.7039  -0.0001   0.0000 </r>
       <r>  -3.6269  -0.0015  -0.0001 </r>
       <r>  -3.5500  -0.0109  -0.0010 </r>
       <r>  -3.4730  -0.0568  -0.0053 </r>
       <r>  -3.3960  -0.1987  -0.0206 </r>
       <r>  -3.3191  -0.4111  -0.0523 </r>
       <r>  -3.2421  -0.2168  -0.0689 </r>
       <r>  -3.1651   1.4094   0.0395 </r>
       <r>  -3.0882   4.7696   0.4066 </r>
       <r>  -3.0112   7.8357   1.0097 </r>
       <r>  -2.9342   7.7794   1.6085 </r>
       <r>  -2.8573   4.6577   1.9670 </r>
       <r>  -2.7803   1.3322   2.0695 </r>
       <r>  -2.7033  -0.2379   2.0512 </r>
       <r>  -2.6263  -0.4065   2.0199 </r>
       <r>  -2.5494  -0.1927   2.0051 </r>
       <r>  -2.4724  -0.0543   2.0009 </r>
       <r>  -2.3954  -0.0103   2.0001 </r>
       <r>  -2.3185  -0.0014   2.0000 </r>
       <r>  -2.2415  -0.0001   2.0000 </r>
       <r>  -2.1645   0.0000   2.0000 </r>
       <r>  -2.0876   0.0000   2.0000 </r>
       <r>  -2.0106   0.0000   2.0000 </r>
       <r>  -1.9336   0.0000   2.0000 </r>
       <r>  -1.8567   0.0000   2.0000 </r>
       <r>  -1.7797   0.0000   2.0000 </r>
       <r>  -1.7027   0.0000   2.0000 </r>
       <r>  -1.6258   0.0000   2.0000 </r>
       <r>  -1.5488   0.0000   2.0000 </r>
       <r>  -1.4718  -0.0001   2.0000 </r>
       <r>  -1.3949  -0.0011   1.9999 </r>
       <r>  -1.3179  -0.0114   1.9990 </r>
       <r>  -1.2409  -0.0814   1.9928 </r>
       <r>  -1.1640  -0.4065   1.9615 </r>
       <r>  -1.0870  -1.3469   1.8578 </r>
       <r>  -1.0100  -2.5580   1.6609 </r>
       <r>  -0.9331  -0.6938   1.6075 </r>
       <r>  -0.8561  10.4699   2.4134 </r>
       <r>  -0.7791  31.3613   4.8272 </r>
       <r>  -0.7022  48.2079   8.5376 </r>
       <r>  -0.6252  45.1023  12.0090 </r>
       <r>  -0.5482  25.1866  13.9475 </r>
       <r>  -0.4713   6.2027  14.4249 </r>
       <r>  -0.3943  -1.8697  14.2810 </r>
       <r>  -0.3173  -2.3105  14.1032 </r>
       <r>  -0.2404  -1.0138  14.0252 </r>
       <r>  -0.1634  -0.2711  14.0043 </r>
       <r>  -0.0864  -0.0490  14.0005 </r>
       <r>  -0.0095  -0.0062  14.0000 </r>
       <r>   0.0675  -0.0006  14.0000 </r>
       <r>   0.1445   0.0000  14.0000 </r>
       <r>   0.2214   0.0000  14.0000 </r>
       <r>   0.2984   0.0000  14.0000 </r>
       <r>   0.3754   0.0000  14.0000 </r>
       <r>   0.4523   0.0000  14.0000 </r>
       <r>   0.5293   0.0000  14.0000 </r>
       <r>   0.6063   0.0000  14.0000 </r>
       <r>   0.6832   0.0000  14.0000 </r>
       <r>   0.7602  -0.0001  14.0000 </r>
       <r>   0.8372  -0.0009  13.9999 </r>
       <r>   0.9141  -0.0097  13.9992 </r>
       <r>   0.9911  -0.0791  13.9931 </r>
       <r>   1.0681  -0.4559  13.9580 </r>
       <r>   1.1450  -1.7869  13.8205 </r>
       <r>   1.2220  -4.3497  13.4857 </r>
       <r>   1.2990  -4.3430  13.1514 </r>
       <r>   1.3760   9.4540  13.8791 </r>
       <r>   1.4529  45.3758  17.3715 </r>
       <r>   1.5299  86.8429  24.0556 </r>
       <r>   1.6069  98.0198  31.5999 </r>
       <r>   1.6838  67.6433  36.8062 </r>
       <r>   1.7608  24.9166  38.7240 </r>
       <r>   1.8378  -0.0221  38.7223 </r>
       <r>   1.9147  -5.2122  38.3211 </r>
       <r>   1.9917  -2.9907  38.0909 </r>
       <r>   2.0687  -0.9506  38.0178 </r>
       <r>   2.1456  -0.1988  38.0025 </r>
       <r>   2.2226  -0.0289  38.0002 </r>
       <r>   2.2996  -0.0030  38.0000 </r>
       <r>   2.3765  -0.0002  38.0000 </r>
       <r>   2.4535   0.0000  38.0000 </r>
       <r>   2.5305   0.0000  38.0000 </r>
       <r>   2.6074   0.0000  38.0000 </r>
       <r>   2.6844   0.0000  38.0000 </r>
       <r>   2.7614   0.0000  38.0000 </r>
       <r>   2.8383   0.0000  38.0000 </r>
       <r>   2.9153  -0.0002  38.0000 </r>
       <r>   2.9923  -0.0025  37.9998 </r>
       <r>   3.0692  -0.0212  37.9982 </r>
       <r>   3.1462  -0.1274  37.9884 </r>
       <r>   3.2232  -0.5228  37.9481 </r>
       <r>   3.3001  -1.3561  37.8437 </r>
       <r>   3.3771  -1.6152  37.7194 </r>
       <r>   3.4541   2.1311  37.8834 </r>
       <r>   3.5310  12.9250  38.8782 </r>
       <r>   3.6080  26.2682  40.9000 </r>
       <r>   3.6850  31.5388  43.3275 </r>
       <r>   3.7619  27.1237  45.4151 </r>
       <r>   3.8389  24.5635  47.3057 </r>
       <r>   3.9159  29.2837  49.5596 </r>
       <r>   3.9928  31.0004  51.9456 </r>
       <r>   4.0698  21.7096  53.6166 </r>
       <r>   4.1468   8.1593  54.2446 </r>
       <r>   4.2237  -0.0063  54.2441 </r>
       <r>   4.3007  -1.7522  54.1092 </r>
       <r>   4.3777  -1.0145  54.0311 </r>
       <r>   4.4546  -0.3249  54.0061 </r>
       <r>   4.5316  -0.0684  54.0009 </r>
       <r>   4.6086  -0.0101  54.0001 </r>
       <r>   4.6855  -0.0018  53.9999 </r>
       <r>   4.7625  -0.0078  53.9993 </r>
       <r>   4.8395  -0.0524  53.9953 </r>
       <r>   4.9164  -0.2476  53.9763 </r>
       <r>   4.9934  -0.7681  53.9171 </r>
       <r>   5.0704  -1.3061  53.8166 </r>
       <r>   5.1473   0.0973  53.8241 </r>
       <r>   5.2243   6.5079  54.3250 </r>
       <r>   5.3013  17.2357  55.6516 </r>
       <r>   5.3782  24.5884  57.5441 </r>
       <r>   5.4552  21.4666  59.1963 </r>
       <r>   5.5322  11.0117  60.0438 </r>
       <r>   5.6092   2.1783  60.2115 </r>
       <r>   5.6861  -1.1187  60.1254 </r>
       <r>   5.7631  -1.0681  60.0432 </r>
       <r>   5.8401  -0.4314  60.0100 </r>
       <r>   5.9170  -0.1087  60.0016 </r>
       <r>   5.9940  -0.0187  60.0002 </r>
       <r>   6.0710  -0.0027  60.0000 </r>
       <r>   6.1479  -0.0048  59.9996 </r>
       <r>   6.2249  -0.0338  59.9970 </r>
       <r>   6.3019  -0.1754  59.9835 </r>
       <r>   6.3788  -0.6085  59.9367 </r>
       <r>   6.4558  -1.2419  59.8411 </r>
       <r>   6.5328  -0.6055  59.7945 </r>
       <r>   6.6097   4.3866  60.1321 </r>
       <r>   6.6867  14.5337  61.2507 </r>
       <r>   6.7637  23.6147  63.0683 </r>
       <r>   6.8406  23.2103  64.8547 </r>
       <r>   6.9176  13.6696  65.9068 </r>
       <r>   6.9946   3.3942  66.1681 </r>
       <r>   7.0715  -2.5243  65.9738 </r>
       <r>   7.1485  -5.5391  65.5475 </r>
       <r>   7.2255  -4.9457  65.1668 </r>
       <r>   7.3024   9.0944  65.8668 </r>
       <r>   7.3794  44.9881  69.3294 </r>
       <r>   7.4564  86.5794  75.9932 </r>
       <r>   7.5333  98.1133  83.5447 </r>
       <r>   7.6103  67.9937  88.7780 </r>
       <r>   7.6873  25.2145  90.7187 </r>
       <r>   7.7642   0.0863  90.7253 </r>
       <r>   7.8412  -5.2200  90.3236 </r>
       <r>   7.9182  -3.0458  90.0891 </r>
       <r>   7.9951  -1.1586  90.0000 </r>
       <r>   8.0721  -1.0049  89.9226 </r>
       <r>   8.1491  -2.0862  89.7620 </r>
       <r>   8.2260  -2.3544  89.5808 </r>
       <r>   8.3030   3.6475  89.8616 </r>
       <r>   8.3800  20.7041  91.4551 </r>
       <r>   8.4569  41.9118  94.6809 </r>
       <r>   8.5339  49.4477  98.4868 </r>
       <r>   8.6109  35.7545 101.2387 </r>
       <r>   8.6878  14.1607 102.3286 </r>
       <r>   8.7648   0.6363 102.3776 </r>
       <r>   8.8418  -2.6144 102.1764 </r>
       <r>   8.9187  -1.6211 102.0516 </r>
       <r>   8.9957  -0.5605 102.0085 </r>
       <r>   9.0727  -0.2887 101.9863 </r>
       <r>   9.1496  -0.9173 101.9157 </r>
       <r>   9.2266  -3.1759 101.6712 </r>
       <r>   9.3036  -6.7466 101.1520 </r>
       <r>   9.3805  -4.3525 100.8170 </r>
       <r>   9.4575  20.7572 102.4146 </r>
       <r>   9.5345  76.1623 108.2766 </r>
       <r>   9.6115 132.4009 118.4671 </r>
       <r>   9.6884 140.6921 129.2958 </r>
       <r>   9.7654  93.0891 136.4606 </r>
       <r>   9.8424  33.2017 139.0161 </r>
       <r>   9.9193  -0.3105 138.9922 </r>
       <r>   9.9963  -7.1082 138.4451 </r>
       <r>  10.0733  -4.1069 138.1290 </r>
       <r>  10.1502  -1.3368 138.0261 </r>
       <r>  10.2272  -0.2898 138.0038 </r>
       <r>  10.3042  -0.0441 138.0004 </r>
       <r>  10.3811  -0.0048 138.0000 </r>
       <r>  10.4581  -0.0005 138.0000 </r>
       <r>  10.5351  -0.0017 137.9999 </r>
       <r>  10.6120  -0.0171 137.9986 </r>
       <r>  10.6890  -0.1279 137.9887 </r>
       <r>  10.7660  -0.6709 137.9371 </r>
       <r>  10.8429  -2.3590 137.7555 </r>
       <r>  10.9199  -4.9143 137.3773 </r>
       <r>  10.9969  -2.6918 137.1701 </r>
       <r>  11.0738  16.5858 138.4467 </r>
       <r>  11.1508  56.7641 142.8156 </r>
       <r>  11.2278  93.7960 150.0349 </r>
       <r>  11.3047  93.5942 157.2386 </r>
       <r>  11.3817  56.3631 161.5767 </r>
       <r>  11.4587  16.3093 162.8320 </r>
       <r>  11.5356  -2.7675 162.6190 </r>
       <r>  11.6126  -4.8979 162.2420 </r>
       <r>  11.6896  -2.3374 162.0621 </r>
       <r>  11.7665  -0.6621 162.0111 </r>
       <r>  11.8435  -0.1258 162.0014 </r>
       <r>  11.9205  -0.0167 162.0001 </r>
       <r>  11.9974  -0.0016 162.0000 </r>
       <r>  12.0744  -0.0001 162.0000 </r>
       <r>  12.1514   0.0000 162.0000 </r>
       <r>  12.2283   0.0000 162.0000 </r>
       <r>  12.3053   0.0000 162.0000 </r>
       <r>  12.3823   0.0000 162.0000 </r>
       <r>  12.4592   0.0000 162.0000 </r>
       <r>  12.5362   0.0000 162.0000 </r>
       <r>  12.6132   0.0000 162.0000 </r>
       <r>  12.6901   0.0000 162.0000 </r>
       <r>  12.7671   0.0000 162.0000 </r>
       <r>  12.8441   0.0000 162.0000 </r>
       <r>  12.9210  -0.0001 162.0000 </r>
       <r>  12.9980  -0.0012 161.9999 </r>
       <r>  13.0750  -0.0108 161.9991 </r>
       <r>  13.1519  -0.0694 161.9937 </r>
       <r>  13.2289  -0.3077 161.9700 </r>
       <r>  13.3059  -0.8812 161.9022 </r>
       <r>  13.3828  -1.2919 161.8028 </r>
       <r>  13.4598   0.7420 161.8599 </r>
       <r>  13.5368   8.0830 162.4820 </r>
       <r>  13.6138  18.8149 163.9302 </r>
       <r>  13.6907  24.2809 165.7990 </r>
       <r>  13.7677  18.3284 167.2097 </r>
       <r>  13.8447   6.6399 167.7207 </r>
       <r>  13.9216   2.3130 167.8988 </r>
       <r>  13.9986  13.9189 168.9701 </r>
       <r>  14.0756  35.8691 171.7308 </r>
       <r>  14.1525  49.2571 175.5220 </r>
       <r>  14.2295  40.9134 178.6710 </r>
       <r>  14.3065  19.5794 180.1780 </r>
       <r>  14.3834   3.0762 180.4147 </r>
       <r>  14.4604  -2.4307 180.2276 </r>
       <r>  14.5374  -1.9873 180.0747 </r>
       <r>  14.6143  -0.7548 180.0166 </r>
       <r>  14.6913  -0.1817 180.0026 </r>
       <r>  14.7683  -0.0300 180.0003 </r>
       <r>  14.8452  -0.0035 180.0000 </r>
       <r>  14.9222  -0.0003 180.0000 </r>
       <r>  14.9992   0.0000 180.0000 </r>
       <r>  15.0761   0.0000 180.0000 </r>
       <r>  15.1531   0.0000 180.0000 </r>
       <r>  15.2301  -0.0002 180.0000 </r>
       <r>  15.3070  -0.0021 179.9998 </r>
       <r>  15.3840  -0.0176 179.9985 </r>
       <r>  15.4610  -0.1042 179.9904 </r>
       <r>  15.5379  -0.4313 179.9573 </r>
       <r>  15.6149  -1.1839 179.8661 </r>
       <r>  15.6919  -1.7769 179.7294 </r>
       <r>  15.7688   0.4596 179.7647 </r>
       <r>  15.8458   9.5065 180.4964 </r>
       <r>  15.9228  25.4692 182.4567 </r>
       <r>  15.9997  40.1575 185.5475 </r>
       <r>  16.0767  42.4709 188.8164 </r>
       <r>  16.1537  30.2925 191.1479 </r>
       <r>  16.2306  13.2295 192.1662 </r>
       <r>  16.3076   1.8206 192.3063 </r>
       <r>  16.3846  -1.7857 192.1689 </r>
       <r>  16.4615  -1.4466 192.0575 </r>
       <r>  16.5385  -0.5720 192.0135 </r>
       <r>  16.6155  -0.1460 192.0023 </r>
       <r>  16.6924  -0.0258 192.0003 </r>
       <r>  16.7694  -0.0033 192.0000 </r>
       <r>  16.8464  -0.0003 192.0000 </r>
       <r>  16.9233   0.0000 192.0000 </r>
       <r>  17.0003   0.0000 192.0000 </r>
       <r>  17.0773   0.0000 192.0000 </r>
       <r>  17.1542   0.0000 192.0000 </r>
       <r>  17.2312   0.0000 192.0000 </r>
       <r>  17.3082   0.0000 192.0000 </r>
       <r>  17.3851   0.0000 192.0000 </r>
       <r>  17.4621   0.0000 192.0000 </r>
       <r>  17.5391   0.0000 192.0000 </r>
       <r>  17.6161   0.0000 192.0000 </r>
       <r>  17.6930   0.0000 192.0000 </r>
       <r>  17.7700   0.0000 192.0000 </r>
       <r>  17.8470   0.0000 192.0000 </r>
       <r>  17.9239   0.0000 192.0000 </r>
       <r>  18.0009   0.0000 192.0000 </r>
       <r>  18.0779   0.0000 192.0000 </r>
      </set>
     </set>
    </array>
   </total>
  </dos>
 </calculation>
 <structure name="finalpos" >
  <crystal>
   <varray name="basis" >
    <v>       7.98882987       0.00000000       0.00000000 </v>
    <v>       0.00000000       7.98882987       0.00000000 </v>
    <v>       0.00000000       0.00000000       7.98882987 </v>
   </varray>
   <i name="volume">    509.85832783 </i>
   <varray name="rec_basis" >
    <v>       0.12517478       0.00000000       0.00000000 </v>
    <v>       0.00000000       0.12517478       0.00000000 </v>
    <v>       0.00000000       0.00000000       0.12517478 </v>
   </varray>
  </crystal>
  <varray name="positions" >
   <v>       0.00000000       0.00000000       0.00000000 </v>
   <v>       0.25000000       0.00000000       0.25000000 </v>
   <v>       0.25000000       0.25000000       0.00000000 </v>
   <v>       0.00000000       0.25000000       0.25000000 </v>
   <v>       0.50000000       0.00000000       0.00000000 </v>
   <v>       0.75000000       0.00000000       0.25000000 </v>
   <v>       0.75000000       0.25000000       0.00000000 </v>
   <v>       0.50000000       0.25000000       0.25000000 </v>
   <v>       0.00000000       0.50000000       0.00000000 </v>
   <v>       0.25000000       0.50000000       0.25000000 </v>
   <v>       0.25000000       0.75000000       0.00000000 </v>
   <v>       0.00000000       0.75000000       0.25000000 </v>
   <v>       0.50000000       0.50000000       0.00000000 </v>
   <v>       0.75000000       0.50000000       0.25000000 </v>
   <v>       0.75000000       0.75000000       0.00000000 </v>
   <v>       0.50000000       0.75000000       0.25000000 </v>
   <v>       0.00000000       0.00000000       0.50000000 </v>
   <v>       0.25000000       0.00000000       0.75000000 </v>
   <v>       0.25000000       0.25000000       0.50000000 </v>
   <v>       0.00000000       0.25000000       0.75000000 </v>
   <v>       0.50000000       0.00000000       0.50000000 </v>
   <v>       0.75000000       0.00000000       0.75000000 </v>
   <v>       0.75000000       0.25000000       0.50000000 </v>
   <v>       0.50000000       0.25000000       0.75000000 </v>
   <v>       0.00000000       0.50000000       0.50000000 </v>
   <v>       0.25000000       0.50000000       0.75000000 </v>
   <v>       0.25000000       0.75000000       0.50000000 </v>
   <v>       0.00000000       0.75000000       0.75000000 </v>
   <v>       0.50000000       0.50000000       0.50000000 </v>
   <v>       0.75000000       0.50000000       0.75000000 </v>
   <v>       0.75000000       0.75000000       0.50000000 </v>
   <v>       0.50000000       0.75000000       0.75000000 </v>
  </varray>
 </structure>
</modeling>
