    8    8  191    2
  0.9595760E+01  0.4250008E-09  0.4250008E-09  0.4250008E-09  0.5000000E-15
  1.000000000000000E-004
  CAR 
 bulk MgO relaxation                     
   56    1   37
 
  0.2500000E+00  0.2500000E+00  0.2500000E+00  0.1000000E+01
   1      -35.332410    -35.332450
   2      -35.332410    -35.332450
   3      -35.332410    -35.332450
   4      -35.310263    -35.310302
   5      -35.298931    -35.298971
   6      -35.298931    -35.298971
   7      -35.298931    -35.298971
   8      -35.288571    -35.288611
   9      -35.288571    -35.288611
  10      -35.288571    -35.288611
  11      -35.275655    -35.275695
  12      -35.275655    -35.275695
  13      -12.601765    -12.602034
  14      -11.826887    -11.827165
  15      -11.826887    -11.827165
  16      -11.826887    -11.827165
  17        0.202732      0.202480
  18        0.202732      0.202480
  19        0.202732      0.202480
  20        1.302569      1.302321
  21        2.052772      2.052486
  22        2.052772      2.052486
  23        2.052772      2.052486
  24        2.917605      2.917306
  25        2.917605      2.917306
  26        2.917605      2.917306
  27        3.571842      3.571536
  28        3.571843      3.571536
  29       10.785515     10.785349
  30       13.444098     13.443908
  31       13.444099     13.443908
  32       13.444099     13.443908
  33       15.269230     15.269052
  34       15.269231     15.269052
  35       15.269231     15.269052
  36       16.333573     16.333338
  37       16.962311     16.962331
