Processors received = 1
script running on host compute-0-2.local
PBS_NODEFILE
compute-0-2
 running on    1 nodes
 distr:  one band on    1 nodes,    1 groups
 vasp.5.2.2 15Apr09 complex 
 POSCAR found type information on POSCAR  Mg O 
 POSCAR found :  2 types and    8 ions
 LDA part: xc-table for Ceperly-Alder, Vosko type interpolation para-ferro
 POSCAR, INCAR and KPOINTS ok, starting setup
 WARNING: small aliasing (wrap around) errors must be expected
 FFT: planning ...(           3 )
 reading WAVECAR
 WARNING: random wavefunctions but no delay for mixing, default for NELMDL
 entering main loop
       N       E                     dE             d eps       ncg     rms          rms(c)
DAV:   1     0.832117505673E+03    0.83212E+03   -0.31654E+04   174   0.298E+03
DAV:   2     0.474215622674E+02   -0.78470E+03   -0.75247E+03   164   0.835E+02
DAV:   3    -0.478466448761E+02   -0.95268E+02   -0.94300E+02   158   0.215E+02
DAV:   4    -0.513288501710E+02   -0.34822E+01   -0.34714E+01   187   0.444E+01
DAV:   5    -0.513745562234E+02   -0.45706E-01   -0.45691E-01   171   0.530E+00    0.250E+01
DAV:   6    -0.477258124045E+02    0.36487E+01   -0.22917E+01   174   0.299E+01    0.883E+00
DAV:   7    -0.480271070511E+02   -0.30129E+00   -0.80490E-01   169   0.750E+00    0.361E+00
DAV:   8    -0.480249340045E+02    0.21730E-02   -0.66243E-02   176   0.264E+00    0.184E+00
DAV:   9    -0.480173612690E+02    0.75727E-02   -0.51453E-02   180   0.214E+00    0.359E-01
DAV:  10    -0.480189695170E+02   -0.16082E-02   -0.20309E-03   184   0.317E-01    0.124E-01
DAV:  11    -0.480191694253E+02   -0.19991E-03   -0.28610E-04   145   0.106E-01    0.630E-02
DAV:  12    -0.480193148074E+02   -0.14538E-03   -0.14211E-04   118   0.861E-02    0.195E-02
DAV:  13    -0.480193233653E+02   -0.85579E-05   -0.14672E-05    74   0.377E-02
   1 F= -.48019323E+02 E0= -.48019323E+02  d E =-.480193E+02  mag=     0.0000
 curvature:   0.00 expect dE= 0.000E+00 dE for cont linesearch  0.000E+00
 trial: gam= 0.00000 g(F)=  0.282E-59 g(S)=  0.321E-04 ort = 0.000E+00 (trialstep = 0.100E+01)
 search vector abs. value=  0.321E-04
 reached required accuracy - stopping structural energy minimisation
