<?xml version="1.0" encoding="ISO-8859-1"?>
<modeling>
 <generator>
  <i name="program" type="string">vasp </i>
  <i name="version" type="string">5.2.2  </i>
  <i name="subversion" type="string">15Apr09 complex  parallel </i>
  <i name="platform" type="string">LinuxIFC </i>
  <i name="date" type="string">2013 03 29 </i>
  <i name="time" type="string">13:54:42 </i>
 </generator>
 <incar>
  <i type="string" name="SYSTEM"> bulk MgO relaxation</i>
  <i type="int" name="ISTART">     1</i>
  <i type="string" name="PREC">normal</i>
  <i type="int" name="ISPIN">     2</i>
  <i type="int" name="IBRION">     2</i>
  <i type="int" name="NSW">   191</i>
  <i type="int" name="ISIF">     3</i>
  <i name="ENCUT">    600.00000000</i>
  <i type="int" name="ISMEAR">     0</i>
  <i name="SIGMA">      0.05000000</i>
  <i type="logical" name="LWAVE"> F  </i>
  <i type="logical" name="LCHARG"> F  </i>
  <i type="logical" name="LPEAD"> F  </i>
  <i type="logical" name="LCALCPOL"> F  </i>
  <i type="logical" name="LCALCEPS"> F  </i>
  <v name="EFIELD_PEAD">      0.00000000      0.00000000      0.00000000</v>
  <i type="int" name="VOSKOWN">     1</i>
  <i type="logical" name="LEFG"> F  </i>
 </incar>
 <kpoints>
  <generation param="Monkhorst-Pack">
   <v type="int" name="divisions">       2        2        2 </v>
   <v name="usershift">      0.00000000       0.00000000       0.00000000 </v>
   <v name="genvec1">      0.50000000       0.00000000       0.00000000 </v>
   <v name="genvec2">      0.00000000       0.50000000       0.00000000 </v>
   <v name="genvec3">      0.00000000       0.00000000       0.50000000 </v>
   <v name="shift">      0.50000000       0.50000000       0.50000000 </v>
  </generation>
  <varray name="kpointlist" >
   <v>       0.25000000       0.25000000       0.25000000 </v>
  </varray>
  <varray name="weights" >
   <v>       1.00000000 </v>
  </varray>
 </kpoints>
 <parameters>
  <separator name="general" >
   <i type="string" name="SYSTEM">bulk MgO relaxation</i>
   <i type="logical" name="LCOMPAT"> F  </i>
  </separator>
  <separator name="electronic" >
   <i type="string" name="PREC">normal</i>
   <i name="ENMAX">    600.00000000</i>
   <i name="ENAUG">    605.39200000</i>
   <i name="EDIFF">      0.00010000</i>
   <i type="int" name="IALGO">    38</i>
   <i type="int" name="IWAVPR">    11</i>
   <i type="int" name="NBANDS">    37</i>
   <i name="NELECT">     56.00000000</i>
   <separator name="electronic smearing" >
    <i type="int" name="ISMEAR">     0</i>
    <i name="SIGMA">      0.05000000</i>
   </separator>
   <separator name="electronic projectors" >
    <i type="logical" name="LREAL"> F  </i>
    <v name="ROPT">      0.00000000      0.00000000</v>
    <i type="int" name="LMAXPAW">  -100</i>
    <i type="int" name="LMAXMIX">     2</i>
   </separator>
   <separator name="electronic startup" >
    <i type="int" name="ISTART">     0</i>
    <i type="int" name="ICHARG">     2</i>
    <i type="int" name="INIWAV">     1</i>
   </separator>
   <separator name="electronic spin" >
    <i type="int" name="ISPIN">     2</i>
    <i type="logical" name="LNONCOLLINEAR"> F  </i>
    <v name="MAGMOM">      1.00000000      1.00000000      1.00000000      1.00000000      1.00000000      1.00000000      1.00000000      1.00000000</v>
    <i name="NUPDOWN">     -1.00000000</i>
    <i type="logical" name="LSORBIT"> F  </i>
    <v name="SAXIS">      0.00000000      0.00000000      1.00000000</v>
    <i type="logical" name="LSPIRAL"> F  </i>
    <v name="QSPIRAL">      0.00000000      0.00000000      0.00000000</v>
    <i type="logical" name="LZEROZ"> F  </i>
   </separator>
   <separator name="electronic exchange-correlation" >
    <i type="logical" name="LASPH"> F  </i>
    <i type="logical" name="LMETAGGA"> F  </i>
   </separator>
   <separator name="electronic convergence" >
    <i type="int" name="NELM">    60</i>
    <i type="int" name="NELMDL">     0</i>
    <i type="int" name="NELMIN">     2</i>
    <i name="ENINI">    600.00000000</i>
    <separator name="electronic convergence detail" >
     <i type="logical" name="LDIAG"> T  </i>
     <i name="WEIMIN">      0.00100000</i>
     <i name="EBREAK">      0.00000068</i>
     <i name="DEPER">      0.30000000</i>
     <i type="int" name="NRMM">     4</i>
     <i name="TIME">      0.40000000</i>
    </separator>
   </separator>
   <separator name="electronic mixer" >
    <i name="AMIX">      0.40000000</i>
    <i name="BMIX">      1.00000000</i>
    <i name="AMIN">      0.10000000</i>
    <i name="AMIX_MAG">      1.60000000</i>
    <i name="BMIX_MAG">      1.00000000</i>
    <separator name="electronic mixer details" >
     <i type="int" name="IMIX">     4</i>
     <i type="int" name="MAXMIX">   -45</i>
     <i name="WC">    100.00000000</i>
     <i type="int" name="INIMIX">     1</i>
     <i type="int" name="MIXPRE">     1</i>
     <i type="int" name="MREMOVE">     5</i>
    </separator>
   </separator>
   <separator name="electronic dipolcorrection" >
    <i type="logical" name="LDIPOL"> F  </i>
    <i type="logical" name="LMONO"> F  </i>
    <i type="int" name="IDIPOL">     0</i>
    <i name="EPSILON">      1.00000000</i>
    <v name="DIPOL">   -100.00000000   -100.00000000   -100.00000000</v>
    <i name="EFIELD">      0.00000000</i>
   </separator>
  </separator>
  <separator name="grids" >
   <i type="int" name="NGX">    28</i>
   <i type="int" name="NGY">    28</i>
   <i type="int" name="NGZ">    28</i>
   <i type="int" name="NGXF">    56</i>
   <i type="int" name="NGYF">    56</i>
   <i type="int" name="NGZF">    56</i>
   <i type="logical" name="ADDGRID"> F  </i>
  </separator>
  <separator name="ionic" >
   <i type="int" name="NSW">   191</i>
   <i type="int" name="IBRION">     2</i>
   <i type="int" name="ISIF">     3</i>
   <i name="PSTRESS">      0.00000000</i>
   <i name="EDIFFG">      0.00100000</i>
   <i type="int" name="NFREE">     1</i>
   <i name="POTIM">      0.50000000</i>
   <i name="SMASS">     -3.00000000</i>
  </separator>
  <separator name="ionic md" >
   <i name="TEBEG">      0.00010000</i>
   <i name="TEEND">      0.00010000</i>
   <i type="int" name="NBLOCK">     1</i>
   <i type="int" name="KBLOCK">   191</i>
   <i type="int" name="NPACO">   256</i>
   <i name="APACO">     16.00000000</i>
  </separator>
  <separator name="symmetry" >
   <i type="int" name="ISYM">     2</i>
   <i name="SYMPREC">      0.00001000</i>
  </separator>
  <separator name="dos" >
   <i type="logical" name="LORBIT"> F  </i>
   <v name="RWIGS">     -1.00000000     -1.00000000</v>
   <i type="int" name="NEDOS">   301</i>
   <i name="EMIN">     10.00000000</i>
   <i name="EMAX">    -10.00000000</i>
   <i name="EFERMI">      0.00000000</i>
  </separator>
  <separator name="writing" >
   <i type="int" name="NWRITE">     2</i>
   <i type="logical" name="LWAVE"> F  </i>
   <i type="logical" name="LCHARG"> F  </i>
   <i type="logical" name="LPARD"> F  </i>
   <i type="logical" name="LVTOT"> F  </i>
   <i type="logical" name="LELF"> F  </i>
   <i type="logical" name="LOPTICS"> F  </i>
   <v name="STM">      0.00000000      0.00000000      0.00000000      0.00000000      0.00000000</v>
  </separator>
  <separator name="performance" >
   <i type="int" name="NPAR">     1</i>
   <i type="int" name="NSIM">     4</i>
   <i type="int" name="NBLK">    32</i>
   <i type="logical" name="LPLANE"> T  </i>
   <i type="logical" name="LSCALAPACK"> F  </i>
   <i type="logical" name="LSCAAWARE"> F  </i>
   <i type="logical" name="LSCALU"> F  </i>
   <i type="logical" name="LASYNC"> F  </i>
  </separator>
  <separator name="miscellaneous" >
   <i type="int" name="IDIOT">     3</i>
   <i type="logical" name="LMUSIC"> F  </i>
   <v name="POMASS">     24.30500000     16.00000000</v>
   <i type="logical" name="LCORR"> T  </i>
  </separator>
  <i type="logical" name="LREAL_COMPAT"> F  </i>
  <i type="logical" name="GGA_COMPAT"> T  </i>
  <i type="logical" name="LBERRY"> F  </i>
  <i type="int" name="ICORELEVEL">     0</i>
  <i type="logical" name="LDAU"> F  </i>
  <i type="int" name="I_CONSTRAINED_M">     0</i>
  <separator name="electronic exchange-correlation" >
   <i type="string" name="GGA">--</i>
   <i type="int" name="VOSKOWN">     1</i>
   <i type="logical" name="LHFCALC"> F  </i>
   <i type="logical" name="LHFONE"> F  </i>
   <i type="logical" name="LRHFCALC"> F  </i>
   <i type="logical" name="LTHOMAS"> F  </i>
   <i type="logical" name="LMODELHF"> F  </i>
   <i name="ENCUTFOCK">      0.00000000</i>
   <i name="ENCUT4O">     -1.00000000</i>
   <i type="int" name="EXXOEP">     0</i>
   <i type="int" name="FOURORBIT">     0</i>
   <i name="AEXX">      0.00000000</i>
   <i name="HFALPHA">      0.00000000</i>
   <i name="ALDAX">      1.00000000</i>
   <i name="AGGAX">      1.00000000</i>
   <i name="ALDAC">      1.00000000</i>
   <i name="AGGAC">      1.00000000</i>
   <i type="int" name="NKREDX">     1</i>
   <i type="int" name="NKREDY">     1</i>
   <i type="int" name="NKREDZ">     1</i>
   <i type="logical" name="SHIFTRED"> F  </i>
   <i type="logical" name="ODDONLY"> F  </i>
   <i type="logical" name="EVENONLY"> F  </i>
   <i type="int" name="LMAXFOCK">     0</i>
   <i type="int" name="NMAXFOCKAE">     0</i>
   <i name="HFSCREEN">      0.00000000</i>
   <i name="HFSCREENC">      0.00000000</i>
  </separator>
  <separator name="model GW" >
   <i type="int" name="MODEL_GW">     0</i>
   <i name="MODEL_EPS0">      5.75745604</i>
   <i name="MODEL_ALPHA">      1.00000000</i>
  </separator>
  <separator name="linear response parameters" >
   <i type="logical" name="LEPSILON"> F  </i>
   <i type="logical" name="LRPA"> F  </i>
   <i type="logical" name="LNABLA"> F  </i>
   <i type="logical" name="LVEL"> F  </i>
   <i type="int" name="KINTER">     0</i>
   <i name="CSHIFT">      0.10000000</i>
   <i name="OMEGAMAX">     -1.00000000</i>
  </separator>
  <separator name="orbital magnetization" >
   <i type="logical" name="ORBITALMAG"> F  </i>
   <i type="logical" name="LMAGBLOCH"> F  </i>
   <i type="logical" name="LCHIMAG"> F  </i>
   <i type="logical" name="LGAUGE"> T  </i>
   <i type="int" name="MAGATOM">     0</i>
   <v name="MAGDIPOL">      0.00000000      0.00000000      0.00000000</v>
   <v name="AVECCONST">      0.00000000      0.00000000      0.00000000</v>
  </separator>
  <separator name="response functions" >
   <i type="logical" name="LRPA"> T  </i>
   <i type="logical" name="LTCTE"> F  </i>
   <i type="logical" name="LTETE"> F  </i>
   <i type="logical" name="L2ORDER"> F  </i>
   <i type="logical" name="LGWLF"> F  </i>
   <i name="ENCUTGW">    400.00000000</i>
   <i name="ENCUTGWSOFT">     -2.00000000</i>
   <i name="ENCUTLF">     -1.00000000</i>
   <i type="int" name="LMAXMP2">    -1</i>
   <i name="SCISSOR">      0.00000000</i>
   <i type="int" name="NOMEGA">     0</i>
   <i type="int" name="NOMEGAR">     0</i>
   <i type="int" name="NBANDSGW">    -1</i>
   <i type="int" name="NBANDSLF">    -1</i>
   <i type="int" name="NELM">     1</i>
   <i type="int" name="DIM">     3</i>
   <i type="int" name="ANTIRES">     0</i>
   <i type="logical" name="LUSEW"> F  </i>
   <i name="OMEGAMAX">    -30.00000000</i>
   <i name="OMEGATL">   -200.00000000</i>
   <i type="int" name="OMEGAGRID">     0</i>
   <i name="CSHIFT">     -0.10000000</i>
   <i type="logical" name="SELFENERGY"> F  </i>
   <i type="logical" name="LSPECTRAL"> F  </i>
   <i type="logical" name="ODDONLYGW"> F  </i>
   <i type="logical" name="EVENONLYGW"> F  </i>
   <i type="int" name="NKREDLFX">     1</i>
   <i type="int" name="NKREDLFY">     1</i>
   <i type="int" name="NKREDLFZ">     1</i>
   <i type="int" name="MAXMEM">  1024</i>
   <i type="int" name="TELESCOPE">     0</i>
  </separator>
 </parameters>
 <atominfo>
  <atoms>       8 </atoms>
  <types>       2 </types>
  <array name="atoms" >
   <dimension dim="1">ion</dimension>
   <field type="string">element</field>
   <field type="int">atomtype</field>
   <set>
    <rc><c>Mg</c><c>   1</c></rc>
    <rc><c>Mg</c><c>   1</c></rc>
    <rc><c>Mg</c><c>   1</c></rc>
    <rc><c>Mg</c><c>   1</c></rc>
    <rc><c>O </c><c>   2</c></rc>
    <rc><c>O </c><c>   2</c></rc>
    <rc><c>O </c><c>   2</c></rc>
    <rc><c>O </c><c>   2</c></rc>
   </set>
  </array>
  <array name="atomtypes" >
   <dimension dim="1">type</dimension>
   <field type="int">atomspertype</field>
   <field type="string">element</field>
   <field>mass</field>
   <field>valence</field>
   <field type="string">pseudopotential</field>
   <set>
    <rc><c>   4</c><c>Mg</c><c>     24.30500000</c><c>      8.00000000</c><c> PAW_GGA Mg_pv 10Feb1998                </c></rc>
    <rc><c>   4</c><c>O </c><c>     16.00000000</c><c>      6.00000000</c><c> PAW_GGA O 05Jan2001                    </c></rc>
   </set>
  </array>
 </atominfo>
 <structure name="initialpos" >
  <crystal>
   <varray name="basis" >
    <v>       4.25000841       0.00000000       0.00000000 </v>
    <v>       0.00000000       4.25000841       0.00000000 </v>
    <v>       0.00000000       0.00000000       4.25000841 </v>
   </varray>
   <i name="volume">     76.76608051 </i>
   <varray name="rec_basis" >
    <v>       0.23529365       0.00000000       0.00000000 </v>
    <v>       0.00000000       0.23529365       0.00000000 </v>
    <v>       0.00000000       0.00000000       0.23529365 </v>
   </varray>
  </crystal>
  <varray name="positions" >
   <v>       0.00000000       0.00000000       0.00000000 </v>
   <v>       0.50000000       0.50000000       0.00000000 </v>
   <v>       0.00000000       0.50000000       0.50000000 </v>
   <v>       0.50000000       0.00000000       0.50000000 </v>
   <v>       0.50000000       0.00000000       0.00000000 </v>
   <v>       0.00000000       0.50000000       0.00000000 </v>
   <v>       0.00000000       0.00000000       0.50000000 </v>
   <v>       0.50000000       0.50000000       0.50000000 </v>
  </varray>
 </structure>
 <calculation>
  <scstep>
   <time name="dav">    7.18    1.82</time>
   <time name="total">   11.69    6.19</time>
   <energy>
    <i name="alphaZ">    189.06234085 </i>
    <i name="ewald">  -3815.77062905 </i>
    <i name="hartreedc">  -1263.78946047 </i>
    <i name="XCdc">    248.95174511 </i>
    <i name="pawpsdc">   3232.86972264 </i>
    <i name="pawaedc">  -3666.78862743 </i>
    <i name="eentropy">      0.00000000 </i>
    <i name="bandstr">    -56.81513704 </i>
    <i name="atom">   5964.39755105 </i>
    <i name="e_fr_energy">    832.11750567 </i>
    <i name="e_wo_entrp">    832.11750567 </i>
    <i name="e_0_energy">    832.11750567 </i>
   </energy>
  </scstep>
  <scstep>
   <time name="dav">    6.52    1.64</time>
   <time name="total">    6.53    1.65</time>
   <energy>
    <i name="e_fr_energy">     47.42156227 </i>
    <i name="e_wo_entrp">     47.42156227 </i>
    <i name="e_0_energy">     47.42156227 </i>
   </energy>
  </scstep>
  <scstep>
   <time name="dav">    6.39    1.60</time>
   <time name="total">    6.40    1.60</time>
   <energy>
    <i name="e_fr_energy">    -47.84664488 </i>
    <i name="e_wo_entrp">    -47.84664488 </i>
    <i name="e_0_energy">    -47.84664488 </i>
   </energy>
  </scstep>
  <scstep>
   <time name="dav">    7.17    1.81</time>
   <time name="total">    7.18    1.82</time>
   <energy>
    <i name="e_fr_energy">    -51.32885017 </i>
    <i name="e_wo_entrp">    -51.32885017 </i>
    <i name="e_0_energy">    -51.32885017 </i>
   </energy>
  </scstep>
  <scstep>
   <time name="dav">    6.75    1.69</time>
   <time name="total">    7.05    1.89</time>
   <energy>
    <i name="e_fr_energy">    -51.37455622 </i>
    <i name="e_wo_entrp">    -51.37455622 </i>
    <i name="e_0_energy">    -51.37455622 </i>
   </energy>
  </scstep>
  <scstep>
   <time name="dav">    7.20    1.82</time>
   <time name="total">   11.85    6.37</time>
   <energy>
    <i name="e_fr_energy">    -47.72581240 </i>
    <i name="e_wo_entrp">    -47.72581240 </i>
    <i name="e_0_energy">    -47.72581240 </i>
   </energy>
  </scstep>
  <scstep>
   <time name="dav">    7.01    1.78</time>
   <time name="total">   11.64    6.31</time>
   <energy>
    <i name="e_fr_energy">    -48.02710705 </i>
    <i name="e_wo_entrp">    -48.02710705 </i>
    <i name="e_0_energy">    -48.02710705 </i>
   </energy>
  </scstep>
  <scstep>
   <time name="dav">    7.14    1.81</time>
   <time name="total">   11.82    6.36</time>
   <energy>
    <i name="e_fr_energy">    -48.02493400 </i>
    <i name="e_wo_entrp">    -48.02493400 </i>
    <i name="e_0_energy">    -48.02493400 </i>
   </energy>
  </scstep>
  <scstep>
   <time name="dav">    7.20    1.83</time>
   <time name="total">   11.91    6.37</time>
   <energy>
    <i name="e_fr_energy">    -48.01736127 </i>
    <i name="e_wo_entrp">    -48.01736127 </i>
    <i name="e_0_energy">    -48.01736127 </i>
   </energy>
  </scstep>
  <scstep>
   <time name="dav">    7.29    1.85</time>
   <time name="total">   12.03    6.38</time>
   <energy>
    <i name="e_fr_energy">    -48.01896952 </i>
    <i name="e_wo_entrp">    -48.01896952 </i>
    <i name="e_0_energy">    -48.01896952 </i>
   </energy>
  </scstep>
  <scstep>
   <time name="dav">    6.28    1.60</time>
   <time name="total">   11.12    6.23</time>
   <energy>
    <i name="e_fr_energy">    -48.01916943 </i>
    <i name="e_wo_entrp">    -48.01916943 </i>
    <i name="e_0_energy">    -48.01916943 </i>
   </energy>
  </scstep>
  <scstep>
   <time name="dav">    5.54    1.40</time>
   <time name="total">   10.32    5.98</time>
   <energy>
    <i name="e_fr_energy">    -48.01931481 </i>
    <i name="e_wo_entrp">    -48.01931481 </i>
    <i name="e_0_energy">    -48.01931481 </i>
   </energy>
  </scstep>
  <scstep>
   <time name="dav">    4.08    1.04</time>
   <time name="total">    8.50    5.38</time>
   <energy>
    <i name="alphaZ">    189.06234085 </i>
    <i name="ewald">  -3815.77062905 </i>
    <i name="hartreedc">  -1306.77912741 </i>
    <i name="XCdc">    252.53774734 </i>
    <i name="pawpsdc">   3449.10243623 </i>
    <i name="pawaedc">  -3885.08837835 </i>
    <i name="eentropy">      0.00000000 </i>
    <i name="bandstr">   -895.48126403 </i>
    <i name="atom">   5964.39755105 </i>
    <i name="e_fr_energy">    -48.01932337 </i>
    <i name="e_wo_entrp">    -48.01932337 </i>
    <i name="e_0_energy">    -48.01932337 </i>
   </energy>
  </scstep>
  <structure>
   <crystal>
    <varray name="basis" >
     <v>       4.25000841       0.00000000       0.00000000 </v>
     <v>       0.00000000       4.25000841       0.00000000 </v>
     <v>       0.00000000       0.00000000       4.25000841 </v>
    </varray>
    <i name="volume">     76.76608051 </i>
    <varray name="rec_basis" >
     <v>       0.23529365       0.00000000       0.00000000 </v>
     <v>       0.00000000       0.23529365       0.00000000 </v>
     <v>       0.00000000       0.00000000       0.23529365 </v>
    </varray>
   </crystal>
   <varray name="positions" >
    <v>       0.00000000       0.00000000       0.00000000 </v>
    <v>       0.50000000       0.50000000       0.00000000 </v>
    <v>       0.00000000       0.50000000       0.50000000 </v>
    <v>       0.50000000       0.00000000       0.50000000 </v>
    <v>       0.50000000       0.00000000       0.00000000 </v>
    <v>       0.00000000       0.50000000       0.00000000 </v>
    <v>       0.00000000       0.00000000       0.50000000 </v>
    <v>       0.50000000       0.50000000       0.50000000 </v>
   </varray>
  </structure>
  <varray name="forces" >
   <v>       0.00000000       0.00000000       0.00000000 </v>
   <v>       0.00000000       0.00000000       0.00000000 </v>
   <v>       0.00000000       0.00000000       0.00000000 </v>
   <v>       0.00000000       0.00000000       0.00000000 </v>
   <v>       0.00000000       0.00000000       0.00000000 </v>
   <v>       0.00000000       0.00000000       0.00000000 </v>
   <v>       0.00000000       0.00000000       0.00000000 </v>
   <v>       0.00000000       0.00000000       0.00000000 </v>
  </varray>
  <varray name="stress" >
   <v>      -0.87959449       0.00000000       0.00000000 </v>
   <v>       0.00000000      -0.87959449       0.00000000 </v>
   <v>       0.00000000       0.00000000      -0.87959449 </v>
  </varray>
  <energy>
   <i name="e_fr_energy">    -48.01932337 </i>
   <i name="e_wo_entrp">    -48.01932337 </i>
   <i name="e_0_energy">      0.00000000 </i>
  </energy>
  <time name="totalsc">  140.75   73.04</time>
  <eigenvalues>
   <array>
    <dimension dim="1">band</dimension>
    <dimension dim="2">kpoint</dimension>
    <dimension dim="3">spin</dimension>
    <field>eigene</field>
    <field>occ</field>
    <set>
     <set comment="spin 1">
      <set comment="kpoint 1">
       <r>  -35.3324    1.0000 </r>
       <r>  -35.3324    1.0000 </r>
       <r>  -35.3324    1.0000 </r>
       <r>  -35.3103    1.0000 </r>
       <r>  -35.2989    1.0000 </r>
       <r>  -35.2989    1.0000 </r>
       <r>  -35.2989    1.0000 </r>
       <r>  -35.2886    1.0000 </r>
       <r>  -35.2886    1.0000 </r>
       <r>  -35.2886    1.0000 </r>
       <r>  -35.2757    1.0000 </r>
       <r>  -35.2757    1.0000 </r>
       <r>  -12.6018    1.0000 </r>
       <r>  -11.8269    1.0000 </r>
       <r>  -11.8269    1.0000 </r>
       <r>  -11.8269    1.0000 </r>
       <r>    0.2027    1.0000 </r>
       <r>    0.2027    1.0000 </r>
       <r>    0.2027    1.0000 </r>
       <r>    1.3026    1.0000 </r>
       <r>    2.0528    1.0000 </r>
       <r>    2.0528    1.0000 </r>
       <r>    2.0528    1.0000 </r>
       <r>    2.9176    1.0000 </r>
       <r>    2.9176    1.0000 </r>
       <r>    2.9176    1.0000 </r>
       <r>    3.5718    1.0000 </r>
       <r>    3.5718    1.0000 </r>
       <r>   10.7855    0.0000 </r>
       <r>   13.4441    0.0000 </r>
       <r>   13.4441    0.0000 </r>
       <r>   13.4441    0.0000 </r>
       <r>   15.2692    0.0000 </r>
       <r>   15.2692    0.0000 </r>
       <r>   15.2692    0.0000 </r>
       <r>   16.3336    0.0000 </r>
       <r>   16.9623    0.0000 </r>
      </set>
     </set>
     <set comment="spin 2">
      <set comment="kpoint 1">
       <r>  -35.3324    1.0000 </r>
       <r>  -35.3324    1.0000 </r>
       <r>  -35.3324    1.0000 </r>
       <r>  -35.3103    1.0000 </r>
       <r>  -35.2990    1.0000 </r>
       <r>  -35.2990    1.0000 </r>
       <r>  -35.2990    1.0000 </r>
       <r>  -35.2886    1.0000 </r>
       <r>  -35.2886    1.0000 </r>
       <r>  -35.2886    1.0000 </r>
       <r>  -35.2757    1.0000 </r>
       <r>  -35.2757    1.0000 </r>
       <r>  -12.6020    1.0000 </r>
       <r>  -11.8272    1.0000 </r>
       <r>  -11.8272    1.0000 </r>
       <r>  -11.8272    1.0000 </r>
       <r>    0.2025    1.0000 </r>
       <r>    0.2025    1.0000 </r>
       <r>    0.2025    1.0000 </r>
       <r>    1.3023    1.0000 </r>
       <r>    2.0525    1.0000 </r>
       <r>    2.0525    1.0000 </r>
       <r>    2.0525    1.0000 </r>
       <r>    2.9173    1.0000 </r>
       <r>    2.9173    1.0000 </r>
       <r>    2.9173    1.0000 </r>
       <r>    3.5715    1.0000 </r>
       <r>    3.5715    1.0000 </r>
       <r>   10.7853    0.0000 </r>
       <r>   13.4439    0.0000 </r>
       <r>   13.4439    0.0000 </r>
       <r>   13.4439    0.0000 </r>
       <r>   15.2691    0.0000 </r>
       <r>   15.2691    0.0000 </r>
       <r>   15.2691    0.0000 </r>
       <r>   16.3333    0.0000 </r>
       <r>   16.9623    0.0000 </r>
      </set>
     </set>
    </set>
   </array>
  </eigenvalues>
  <separator name="orbital magnetization" >
   <v name="MAGDIPOLOUT">      0.00000000      0.00000000      0.00000000</v>
  </separator>
  <dos>
   <i name="efermi">      3.90170932 </i>
   <total>
    <array>
     <dimension dim="1">gridpoints</dimension>
     <dimension dim="2">spin</dimension>
     <field>energy</field>
     <field>total</field>
     <field>integrated</field>
     <set>
      <set comment="spin 1">
       <r> -37.9472   0.0000   0.0000 </r>
       <r> -37.7554   0.0000   0.0000 </r>
       <r> -37.5637   0.0000   0.0000 </r>
       <r> -37.3719   0.0000   0.0000 </r>
       <r> -37.1802   0.0000   0.0000 </r>
       <r> -36.9885   0.0000   0.0000 </r>
       <r> -36.7967   0.0000   0.0000 </r>
       <r> -36.6050   0.0000   0.0000 </r>
       <r> -36.4132   0.0000   0.0000 </r>
       <r> -36.2215   0.0000   0.0000 </r>
       <r> -36.0297   0.0000   0.0000 </r>
       <r> -35.8380   0.0000   0.0000 </r>
       <r> -35.6462   0.0000   0.0000 </r>
       <r> -35.4545   0.0046   0.0009 </r>
       <r> -35.2627  51.9764   9.9672 </r>
       <r> -35.0710  10.6013  12.0000 </r>
       <r> -34.8792   0.0000  12.0000 </r>
       <r> -34.6875   0.0000  12.0000 </r>
       <r> -34.4957   0.0000  12.0000 </r>
       <r> -34.3040   0.0000  12.0000 </r>
       <r> -34.1122   0.0000  12.0000 </r>
       <r> -33.9205   0.0000  12.0000 </r>
       <r> -33.7287   0.0000  12.0000 </r>
       <r> -33.5370   0.0000  12.0000 </r>
       <r> -33.3452   0.0000  12.0000 </r>
       <r> -33.1535   0.0000  12.0000 </r>
       <r> -32.9618   0.0000  12.0000 </r>
       <r> -32.7700   0.0000  12.0000 </r>
       <r> -32.5783   0.0000  12.0000 </r>
       <r> -32.3865   0.0000  12.0000 </r>
       <r> -32.1948   0.0000  12.0000 </r>
       <r> -32.0030   0.0000  12.0000 </r>
       <r> -31.8113   0.0000  12.0000 </r>
       <r> -31.6195   0.0000  12.0000 </r>
       <r> -31.4278   0.0000  12.0000 </r>
       <r> -31.2360   0.0000  12.0000 </r>
       <r> -31.0443   0.0000  12.0000 </r>
       <r> -30.8525   0.0000  12.0000 </r>
       <r> -30.6608   0.0000  12.0000 </r>
       <r> -30.4690   0.0000  12.0000 </r>
       <r> -30.2773   0.0000  12.0000 </r>
       <r> -30.0855   0.0000  12.0000 </r>
       <r> -29.8938   0.0000  12.0000 </r>
       <r> -29.7020   0.0000  12.0000 </r>
       <r> -29.5103   0.0000  12.0000 </r>
       <r> -29.3186   0.0000  12.0000 </r>
       <r> -29.1268   0.0000  12.0000 </r>
       <r> -28.9351   0.0000  12.0000 </r>
       <r> -28.7433   0.0000  12.0000 </r>
       <r> -28.5516   0.0000  12.0000 </r>
       <r> -28.3598   0.0000  12.0000 </r>
       <r> -28.1681   0.0000  12.0000 </r>
       <r> -27.9763   0.0000  12.0000 </r>
       <r> -27.7846   0.0000  12.0000 </r>
       <r> -27.5928   0.0000  12.0000 </r>
       <r> -27.4011   0.0000  12.0000 </r>
       <r> -27.2093   0.0000  12.0000 </r>
       <r> -27.0176   0.0000  12.0000 </r>
       <r> -26.8258   0.0000  12.0000 </r>
       <r> -26.6341   0.0000  12.0000 </r>
       <r> -26.4423   0.0000  12.0000 </r>
       <r> -26.2506   0.0000  12.0000 </r>
       <r> -26.0588   0.0000  12.0000 </r>
       <r> -25.8671   0.0000  12.0000 </r>
       <r> -25.6753   0.0000  12.0000 </r>
       <r> -25.4836   0.0000  12.0000 </r>
       <r> -25.2919   0.0000  12.0000 </r>
       <r> -25.1001   0.0000  12.0000 </r>
       <r> -24.9084   0.0000  12.0000 </r>
       <r> -24.7166   0.0000  12.0000 </r>
       <r> -24.5249   0.0000  12.0000 </r>
       <r> -24.3331   0.0000  12.0000 </r>
       <r> -24.1414   0.0000  12.0000 </r>
       <r> -23.9496   0.0000  12.0000 </r>
       <r> -23.7579   0.0000  12.0000 </r>
       <r> -23.5661   0.0000  12.0000 </r>
       <r> -23.3744   0.0000  12.0000 </r>
       <r> -23.1826   0.0000  12.0000 </r>
       <r> -22.9909   0.0000  12.0000 </r>
       <r> -22.7991   0.0000  12.0000 </r>
       <r> -22.6074   0.0000  12.0000 </r>
       <r> -22.4156   0.0000  12.0000 </r>
       <r> -22.2239   0.0000  12.0000 </r>
       <r> -22.0321   0.0000  12.0000 </r>
       <r> -21.8404   0.0000  12.0000 </r>
       <r> -21.6486   0.0000  12.0000 </r>
       <r> -21.4569   0.0000  12.0000 </r>
       <r> -21.2652   0.0000  12.0000 </r>
       <r> -21.0734   0.0000  12.0000 </r>
       <r> -20.8817   0.0000  12.0000 </r>
       <r> -20.6899   0.0000  12.0000 </r>
       <r> -20.4982   0.0000  12.0000 </r>
       <r> -20.3064   0.0000  12.0000 </r>
       <r> -20.1147   0.0000  12.0000 </r>
       <r> -19.9229   0.0000  12.0000 </r>
       <r> -19.7312   0.0000  12.0000 </r>
       <r> -19.5394   0.0000  12.0000 </r>
       <r> -19.3477   0.0000  12.0000 </r>
       <r> -19.1559   0.0000  12.0000 </r>
       <r> -18.9642   0.0000  12.0000 </r>
       <r> -18.7724   0.0000  12.0000 </r>
       <r> -18.5807   0.0000  12.0000 </r>
       <r> -18.3889   0.0000  12.0000 </r>
       <r> -18.1972   0.0000  12.0000 </r>
       <r> -18.0054   0.0000  12.0000 </r>
       <r> -17.8137   0.0000  12.0000 </r>
       <r> -17.6220   0.0000  12.0000 </r>
       <r> -17.4302   0.0000  12.0000 </r>
       <r> -17.2385   0.0000  12.0000 </r>
       <r> -17.0467   0.0000  12.0000 </r>
       <r> -16.8550   0.0000  12.0000 </r>
       <r> -16.6632   0.0000  12.0000 </r>
       <r> -16.4715   0.0000  12.0000 </r>
       <r> -16.2797   0.0000  12.0000 </r>
       <r> -16.0880   0.0000  12.0000 </r>
       <r> -15.8962   0.0000  12.0000 </r>
       <r> -15.7045   0.0000  12.0000 </r>
       <r> -15.5127   0.0000  12.0000 </r>
       <r> -15.3210   0.0000  12.0000 </r>
       <r> -15.1292   0.0000  12.0000 </r>
       <r> -14.9375   0.0000  12.0000 </r>
       <r> -14.7457   0.0000  12.0000 </r>
       <r> -14.5540   0.0000  12.0000 </r>
       <r> -14.3622   0.0000  12.0000 </r>
       <r> -14.1705   0.0000  12.0000 </r>
       <r> -13.9787   0.0000  12.0000 </r>
       <r> -13.7870   0.0000  12.0000 </r>
       <r> -13.5953   0.0000  12.0000 </r>
       <r> -13.4035   0.0000  12.0000 </r>
       <r> -13.2118   0.0000  12.0000 </r>
       <r> -13.0200   0.0000  12.0000 </r>
       <r> -12.8283   0.0000  12.0000 </r>
       <r> -12.6365   0.8492  12.1628 </r>
       <r> -12.4448   4.3660  13.0000 </r>
       <r> -12.2530   0.0000  13.0000 </r>
       <r> -12.0613   0.0000  13.0000 </r>
       <r> -11.8695   1.7822  13.3417 </r>
       <r> -11.6778  13.8632  16.0000 </r>
       <r> -11.4860   0.0002  16.0000 </r>
       <r> -11.2943   0.0000  16.0000 </r>
       <r> -11.1025   0.0000  16.0000 </r>
       <r> -10.9108   0.0000  16.0000 </r>
       <r> -10.7190   0.0000  16.0000 </r>
       <r> -10.5273   0.0000  16.0000 </r>
       <r> -10.3355   0.0000  16.0000 </r>
       <r> -10.1438   0.0000  16.0000 </r>
       <r>  -9.9520   0.0000  16.0000 </r>
       <r>  -9.7603   0.0000  16.0000 </r>
       <r>  -9.5686   0.0000  16.0000 </r>
       <r>  -9.3768   0.0000  16.0000 </r>
       <r>  -9.1851   0.0000  16.0000 </r>
       <r>  -8.9933   0.0000  16.0000 </r>
       <r>  -8.8016   0.0000  16.0000 </r>
       <r>  -8.6098   0.0000  16.0000 </r>
       <r>  -8.4181   0.0000  16.0000 </r>
       <r>  -8.2263   0.0000  16.0000 </r>
       <r>  -8.0346   0.0000  16.0000 </r>
       <r>  -7.8428   0.0000  16.0000 </r>
       <r>  -7.6511   0.0000  16.0000 </r>
       <r>  -7.4593   0.0000  16.0000 </r>
       <r>  -7.2676   0.0000  16.0000 </r>
       <r>  -7.0758   0.0000  16.0000 </r>
       <r>  -6.8841   0.0000  16.0000 </r>
       <r>  -6.6923   0.0000  16.0000 </r>
       <r>  -6.5006   0.0000  16.0000 </r>
       <r>  -6.3088   0.0000  16.0000 </r>
       <r>  -6.1171   0.0000  16.0000 </r>
       <r>  -5.9254   0.0000  16.0000 </r>
       <r>  -5.7336   0.0000  16.0000 </r>
       <r>  -5.5419   0.0000  16.0000 </r>
       <r>  -5.3501   0.0000  16.0000 </r>
       <r>  -5.1584   0.0000  16.0000 </r>
       <r>  -4.9666   0.0000  16.0000 </r>
       <r>  -4.7749   0.0000  16.0000 </r>
       <r>  -4.5831   0.0000  16.0000 </r>
       <r>  -4.3914   0.0000  16.0000 </r>
       <r>  -4.1996   0.0000  16.0000 </r>
       <r>  -4.0079   0.0000  16.0000 </r>
       <r>  -3.8161   0.0000  16.0000 </r>
       <r>  -3.6244   0.0000  16.0000 </r>
       <r>  -3.4326   0.0000  16.0000 </r>
       <r>  -3.2409   0.0000  16.0000 </r>
       <r>  -3.0491   0.0000  16.0000 </r>
       <r>  -2.8574   0.0000  16.0000 </r>
       <r>  -2.6656   0.0000  16.0000 </r>
       <r>  -2.4739   0.0000  16.0000 </r>
       <r>  -2.2821   0.0000  16.0000 </r>
       <r>  -2.0904   0.0000  16.0000 </r>
       <r>  -1.8987   0.0000  16.0000 </r>
       <r>  -1.7069   0.0000  16.0000 </r>
       <r>  -1.5152   0.0000  16.0000 </r>
       <r>  -1.3234   0.0000  16.0000 </r>
       <r>  -1.1317   0.0000  16.0000 </r>
       <r>  -0.9399   0.0000  16.0000 </r>
       <r>  -0.7482   0.0000  16.0000 </r>
       <r>  -0.5564   0.0000  16.0000 </r>
       <r>  -0.3647   0.0000  16.0000 </r>
       <r>  -0.1729   0.0000  16.0000 </r>
       <r>   0.0188   0.0000  16.0000 </r>
       <r>   0.2106   9.1951  17.7631 </r>
       <r>   0.4023   6.4504  19.0000 </r>
       <r>   0.5941   0.0000  19.0000 </r>
       <r>   0.7858   0.0000  19.0000 </r>
       <r>   0.9776   0.0000  19.0000 </r>
       <r>   1.1693   0.0004  19.0001 </r>
       <r>   1.3611   4.9590  19.9510 </r>
       <r>   1.5528   0.2558  20.0000 </r>
       <r>   1.7445   0.0000  20.0000 </r>
       <r>   1.9363   0.0077  20.0015 </r>
       <r>   2.1280  15.3777  22.9501 </r>
       <r>   2.3198   0.2601  23.0000 </r>
       <r>   2.5115   0.0000  23.0000 </r>
       <r>   2.7033   0.0000  23.0000 </r>
       <r>   2.8950   4.0931  23.7848 </r>
       <r>   3.0868  11.5524  26.0000 </r>
       <r>   3.2785   0.0000  26.0000 </r>
       <r>   3.4703   0.0212  26.0041 </r>
       <r>   3.6620  10.3531  27.9893 </r>
       <r>   3.8538   0.0561  28.0000 </r>
       <r>   4.0455   0.0000  28.0000 </r>
       <r>   4.2373   0.0000  28.0000 </r>
       <r>   4.4290   0.0000  28.0000 </r>
       <r>   4.6208   0.0000  28.0000 </r>
       <r>   4.8125   0.0000  28.0000 </r>
       <r>   5.0043   0.0000  28.0000 </r>
       <r>   5.1960   0.0000  28.0000 </r>
       <r>   5.3878   0.0000  28.0000 </r>
       <r>   5.5795   0.0000  28.0000 </r>
       <r>   5.7712   0.0000  28.0000 </r>
       <r>   5.9630   0.0000  28.0000 </r>
       <r>   6.1547   0.0000  28.0000 </r>
       <r>   6.3465   0.0000  28.0000 </r>
       <r>   6.5382   0.0000  28.0000 </r>
       <r>   6.7300   0.0000  28.0000 </r>
       <r>   6.9217   0.0000  28.0000 </r>
       <r>   7.1135   0.0000  28.0000 </r>
       <r>   7.3052   0.0000  28.0000 </r>
       <r>   7.4970   0.0000  28.0000 </r>
       <r>   7.6887   0.0000  28.0000 </r>
       <r>   7.8805   0.0000  28.0000 </r>
       <r>   8.0722   0.0000  28.0000 </r>
       <r>   8.2640   0.0000  28.0000 </r>
       <r>   8.4557   0.0000  28.0000 </r>
       <r>   8.6475   0.0000  28.0000 </r>
       <r>   8.8392   0.0000  28.0000 </r>
       <r>   9.0310   0.0000  28.0000 </r>
       <r>   9.2227   0.0000  28.0000 </r>
       <r>   9.4145   0.0000  28.0000 </r>
       <r>   9.6062   0.0000  28.0000 </r>
       <r>   9.7979   0.0000  28.0000 </r>
       <r>   9.9897   0.0000  28.0000 </r>
       <r>  10.1814   0.0000  28.0000 </r>
       <r>  10.3732   0.0000  28.0000 </r>
       <r>  10.5649   0.0000  28.0000 </r>
       <r>  10.7567   1.0816  28.2074 </r>
       <r>  10.9484   4.1336  29.0000 </r>
       <r>  11.1402   0.0000  29.0000 </r>
       <r>  11.3319   0.0000  29.0000 </r>
       <r>  11.5237   0.0000  29.0000 </r>
       <r>  11.7154   0.0000  29.0000 </r>
       <r>  11.9072   0.0000  29.0000 </r>
       <r>  12.0989   0.0000  29.0000 </r>
       <r>  12.2907   0.0000  29.0000 </r>
       <r>  12.4824   0.0000  29.0000 </r>
       <r>  12.6742   0.0000  29.0000 </r>
       <r>  12.8659   0.0000  29.0000 </r>
       <r>  13.0577   0.0000  29.0000 </r>
       <r>  13.2494   0.0000  29.0000 </r>
       <r>  13.4411   7.3026  30.4003 </r>
       <r>  13.6329   8.3429  32.0000 </r>
       <r>  13.8246   0.0000  32.0000 </r>
       <r>  14.0164   0.0000  32.0000 </r>
       <r>  14.2081   0.0000  32.0000 </r>
       <r>  14.3999   0.0000  32.0000 </r>
       <r>  14.5916   0.0000  32.0000 </r>
       <r>  14.7834   0.0000  32.0000 </r>
       <r>  14.9751   0.0000  32.0000 </r>
       <r>  15.1669   0.0297  32.0057 </r>
       <r>  15.3586  15.5263  34.9828 </r>
       <r>  15.5504   0.0896  35.0000 </r>
       <r>  15.7421   0.0000  35.0000 </r>
       <r>  15.9339   0.0000  35.0000 </r>
       <r>  16.1256   0.0000  35.0000 </r>
       <r>  16.3174   1.6860  35.3233 </r>
       <r>  16.5091   3.5292  36.0000 </r>
       <r>  16.7009   0.0000  36.0000 </r>
       <r>  16.8926   0.1269  36.0243 </r>
       <r>  17.0844   5.0869  36.9997 </r>
       <r>  17.2761   0.0015  37.0000 </r>
       <r>  17.4678   0.0000  37.0000 </r>
       <r>  17.6596   0.0000  37.0000 </r>
       <r>  17.8513   0.0000  37.0000 </r>
       <r>  18.0431   0.0000  37.0000 </r>
       <r>  18.2348   0.0000  37.0000 </r>
       <r>  18.4266   0.0000  37.0000 </r>
       <r>  18.6183   0.0000  37.0000 </r>
       <r>  18.8101   0.0000  37.0000 </r>
       <r>  19.0018   0.0000  37.0000 </r>
       <r>  19.1936   0.0000  37.0000 </r>
       <r>  19.3853   0.0000  37.0000 </r>
       <r>  19.5771   0.0000  37.0000 </r>
      </set>
      <set comment="spin 2">
       <r> -37.9472   0.0000   0.0000 </r>
       <r> -37.7554   0.0000   0.0000 </r>
       <r> -37.5637   0.0000   0.0000 </r>
       <r> -37.3719   0.0000   0.0000 </r>
       <r> -37.1802   0.0000   0.0000 </r>
       <r> -36.9885   0.0000   0.0000 </r>
       <r> -36.7967   0.0000   0.0000 </r>
       <r> -36.6050   0.0000   0.0000 </r>
       <r> -36.4132   0.0000   0.0000 </r>
       <r> -36.2215   0.0000   0.0000 </r>
       <r> -36.0297   0.0000   0.0000 </r>
       <r> -35.8380   0.0000   0.0000 </r>
       <r> -35.6462   0.0000   0.0000 </r>
       <r> -35.4545   0.0046   0.0009 </r>
       <r> -35.2627  51.9924   9.9703 </r>
       <r> -35.0710  10.5853  12.0000 </r>
       <r> -34.8792   0.0000  12.0000 </r>
       <r> -34.6875   0.0000  12.0000 </r>
       <r> -34.4957   0.0000  12.0000 </r>
       <r> -34.3040   0.0000  12.0000 </r>
       <r> -34.1122   0.0000  12.0000 </r>
       <r> -33.9205   0.0000  12.0000 </r>
       <r> -33.7287   0.0000  12.0000 </r>
       <r> -33.5370   0.0000  12.0000 </r>
       <r> -33.3452   0.0000  12.0000 </r>
       <r> -33.1535   0.0000  12.0000 </r>
       <r> -32.9618   0.0000  12.0000 </r>
       <r> -32.7700   0.0000  12.0000 </r>
       <r> -32.5783   0.0000  12.0000 </r>
       <r> -32.3865   0.0000  12.0000 </r>
       <r> -32.1948   0.0000  12.0000 </r>
       <r> -32.0030   0.0000  12.0000 </r>
       <r> -31.8113   0.0000  12.0000 </r>
       <r> -31.6195   0.0000  12.0000 </r>
       <r> -31.4278   0.0000  12.0000 </r>
       <r> -31.2360   0.0000  12.0000 </r>
       <r> -31.0443   0.0000  12.0000 </r>
       <r> -30.8525   0.0000  12.0000 </r>
       <r> -30.6608   0.0000  12.0000 </r>
       <r> -30.4690   0.0000  12.0000 </r>
       <r> -30.2773   0.0000  12.0000 </r>
       <r> -30.0855   0.0000  12.0000 </r>
       <r> -29.8938   0.0000  12.0000 </r>
       <r> -29.7020   0.0000  12.0000 </r>
       <r> -29.5103   0.0000  12.0000 </r>
       <r> -29.3186   0.0000  12.0000 </r>
       <r> -29.1268   0.0000  12.0000 </r>
       <r> -28.9351   0.0000  12.0000 </r>
       <r> -28.7433   0.0000  12.0000 </r>
       <r> -28.5516   0.0000  12.0000 </r>
       <r> -28.3598   0.0000  12.0000 </r>
       <r> -28.1681   0.0000  12.0000 </r>
       <r> -27.9763   0.0000  12.0000 </r>
       <r> -27.7846   0.0000  12.0000 </r>
       <r> -27.5928   0.0000  12.0000 </r>
       <r> -27.4011   0.0000  12.0000 </r>
       <r> -27.2093   0.0000  12.0000 </r>
       <r> -27.0176   0.0000  12.0000 </r>
       <r> -26.8258   0.0000  12.0000 </r>
       <r> -26.6341   0.0000  12.0000 </r>
       <r> -26.4423   0.0000  12.0000 </r>
       <r> -26.2506   0.0000  12.0000 </r>
       <r> -26.0588   0.0000  12.0000 </r>
       <r> -25.8671   0.0000  12.0000 </r>
       <r> -25.6753   0.0000  12.0000 </r>
       <r> -25.4836   0.0000  12.0000 </r>
       <r> -25.2919   0.0000  12.0000 </r>
       <r> -25.1001   0.0000  12.0000 </r>
       <r> -24.9084   0.0000  12.0000 </r>
       <r> -24.7166   0.0000  12.0000 </r>
       <r> -24.5249   0.0000  12.0000 </r>
       <r> -24.3331   0.0000  12.0000 </r>
       <r> -24.1414   0.0000  12.0000 </r>
       <r> -23.9496   0.0000  12.0000 </r>
       <r> -23.7579   0.0000  12.0000 </r>
       <r> -23.5661   0.0000  12.0000 </r>
       <r> -23.3744   0.0000  12.0000 </r>
       <r> -23.1826   0.0000  12.0000 </r>
       <r> -22.9909   0.0000  12.0000 </r>
       <r> -22.7991   0.0000  12.0000 </r>
       <r> -22.6074   0.0000  12.0000 </r>
       <r> -22.4156   0.0000  12.0000 </r>
       <r> -22.2239   0.0000  12.0000 </r>
       <r> -22.0321   0.0000  12.0000 </r>
       <r> -21.8404   0.0000  12.0000 </r>
       <r> -21.6486   0.0000  12.0000 </r>
       <r> -21.4569   0.0000  12.0000 </r>
       <r> -21.2652   0.0000  12.0000 </r>
       <r> -21.0734   0.0000  12.0000 </r>
       <r> -20.8817   0.0000  12.0000 </r>
       <r> -20.6899   0.0000  12.0000 </r>
       <r> -20.4982   0.0000  12.0000 </r>
       <r> -20.3064   0.0000  12.0000 </r>
       <r> -20.1147   0.0000  12.0000 </r>
       <r> -19.9229   0.0000  12.0000 </r>
       <r> -19.7312   0.0000  12.0000 </r>
       <r> -19.5394   0.0000  12.0000 </r>
       <r> -19.3477   0.0000  12.0000 </r>
       <r> -19.1559   0.0000  12.0000 </r>
       <r> -18.9642   0.0000  12.0000 </r>
       <r> -18.7724   0.0000  12.0000 </r>
       <r> -18.5807   0.0000  12.0000 </r>
       <r> -18.3889   0.0000  12.0000 </r>
       <r> -18.1972   0.0000  12.0000 </r>
       <r> -18.0054   0.0000  12.0000 </r>
       <r> -17.8137   0.0000  12.0000 </r>
       <r> -17.6220   0.0000  12.0000 </r>
       <r> -17.4302   0.0000  12.0000 </r>
       <r> -17.2385   0.0000  12.0000 </r>
       <r> -17.0467   0.0000  12.0000 </r>
       <r> -16.8550   0.0000  12.0000 </r>
       <r> -16.6632   0.0000  12.0000 </r>
       <r> -16.4715   0.0000  12.0000 </r>
       <r> -16.2797   0.0000  12.0000 </r>
       <r> -16.0880   0.0000  12.0000 </r>
       <r> -15.8962   0.0000  12.0000 </r>
       <r> -15.7045   0.0000  12.0000 </r>
       <r> -15.5127   0.0000  12.0000 </r>
       <r> -15.3210   0.0000  12.0000 </r>
       <r> -15.1292   0.0000  12.0000 </r>
       <r> -14.9375   0.0000  12.0000 </r>
       <r> -14.7457   0.0000  12.0000 </r>
       <r> -14.5540   0.0000  12.0000 </r>
       <r> -14.3622   0.0000  12.0000 </r>
       <r> -14.1705   0.0000  12.0000 </r>
       <r> -13.9787   0.0000  12.0000 </r>
       <r> -13.7870   0.0000  12.0000 </r>
       <r> -13.5953   0.0000  12.0000 </r>
       <r> -13.4035   0.0000  12.0000 </r>
       <r> -13.2118   0.0000  12.0000 </r>
       <r> -13.0200   0.0000  12.0000 </r>
       <r> -12.8283   0.0000  12.0000 </r>
       <r> -12.6365   0.8590  12.1647 </r>
       <r> -12.4448   4.3562  13.0000 </r>
       <r> -12.2530   0.0000  13.0000 </r>
       <r> -12.0613   0.0000  13.0000 </r>
       <r> -11.8695   1.8061  13.3463 </r>
       <r> -11.6778  13.8393  16.0000 </r>
       <r> -11.4860   0.0002  16.0000 </r>
       <r> -11.2943   0.0000  16.0000 </r>
       <r> -11.1025   0.0000  16.0000 </r>
       <r> -10.9108   0.0000  16.0000 </r>
       <r> -10.7190   0.0000  16.0000 </r>
       <r> -10.5273   0.0000  16.0000 </r>
       <r> -10.3355   0.0000  16.0000 </r>
       <r> -10.1438   0.0000  16.0000 </r>
       <r>  -9.9520   0.0000  16.0000 </r>
       <r>  -9.7603   0.0000  16.0000 </r>
       <r>  -9.5686   0.0000  16.0000 </r>
       <r>  -9.3768   0.0000  16.0000 </r>
       <r>  -9.1851   0.0000  16.0000 </r>
       <r>  -8.9933   0.0000  16.0000 </r>
       <r>  -8.8016   0.0000  16.0000 </r>
       <r>  -8.6098   0.0000  16.0000 </r>
       <r>  -8.4181   0.0000  16.0000 </r>
       <r>  -8.2263   0.0000  16.0000 </r>
       <r>  -8.0346   0.0000  16.0000 </r>
       <r>  -7.8428   0.0000  16.0000 </r>
       <r>  -7.6511   0.0000  16.0000 </r>
       <r>  -7.4593   0.0000  16.0000 </r>
       <r>  -7.2676   0.0000  16.0000 </r>
       <r>  -7.0758   0.0000  16.0000 </r>
       <r>  -6.8841   0.0000  16.0000 </r>
       <r>  -6.6923   0.0000  16.0000 </r>
       <r>  -6.5006   0.0000  16.0000 </r>
       <r>  -6.3088   0.0000  16.0000 </r>
       <r>  -6.1171   0.0000  16.0000 </r>
       <r>  -5.9254   0.0000  16.0000 </r>
       <r>  -5.7336   0.0000  16.0000 </r>
       <r>  -5.5419   0.0000  16.0000 </r>
       <r>  -5.3501   0.0000  16.0000 </r>
       <r>  -5.1584   0.0000  16.0000 </r>
       <r>  -4.9666   0.0000  16.0000 </r>
       <r>  -4.7749   0.0000  16.0000 </r>
       <r>  -4.5831   0.0000  16.0000 </r>
       <r>  -4.3914   0.0000  16.0000 </r>
       <r>  -4.1996   0.0000  16.0000 </r>
       <r>  -4.0079   0.0000  16.0000 </r>
       <r>  -3.8161   0.0000  16.0000 </r>
       <r>  -3.6244   0.0000  16.0000 </r>
       <r>  -3.4326   0.0000  16.0000 </r>
       <r>  -3.2409   0.0000  16.0000 </r>
       <r>  -3.0491   0.0000  16.0000 </r>
       <r>  -2.8574   0.0000  16.0000 </r>
       <r>  -2.6656   0.0000  16.0000 </r>
       <r>  -2.4739   0.0000  16.0000 </r>
       <r>  -2.2821   0.0000  16.0000 </r>
       <r>  -2.0904   0.0000  16.0000 </r>
       <r>  -1.8987   0.0000  16.0000 </r>
       <r>  -1.7069   0.0000  16.0000 </r>
       <r>  -1.5152   0.0000  16.0000 </r>
       <r>  -1.3234   0.0000  16.0000 </r>
       <r>  -1.1317   0.0000  16.0000 </r>
       <r>  -0.9399   0.0000  16.0000 </r>
       <r>  -0.7482   0.0000  16.0000 </r>
       <r>  -0.5564   0.0000  16.0000 </r>
       <r>  -0.3647   0.0000  16.0000 </r>
       <r>  -0.1729   0.0000  16.0000 </r>
       <r>   0.0188   0.0000  16.0000 </r>
       <r>   0.2106   9.2386  17.7715 </r>
       <r>   0.4023   6.4070  19.0000 </r>
       <r>   0.5941   0.0000  19.0000 </r>
       <r>   0.7858   0.0000  19.0000 </r>
       <r>   0.9776   0.0000  19.0000 </r>
       <r>   1.1693   0.0004  19.0001 </r>
       <r>   1.3611   4.9627  19.9517 </r>
       <r>   1.5528   0.2521  20.0000 </r>
       <r>   1.7445   0.0000  20.0000 </r>
       <r>   1.9363   0.0079  20.0015 </r>
       <r>   2.1280  15.3827  22.9511 </r>
       <r>   2.3198   0.2549  23.0000 </r>
       <r>   2.5115   0.0000  23.0000 </r>
       <r>   2.7033   0.0000  23.0000 </r>
       <r>   2.8950   4.1363  23.7931 </r>
       <r>   3.0868  11.5093  26.0000 </r>
       <r>   3.2785   0.0000  26.0000 </r>
       <r>   3.4703   0.0218  26.0042 </r>
       <r>   3.6620  10.3539  27.9895 </r>
       <r>   3.8538   0.0547  28.0000 </r>
       <r>   4.0455   0.0000  28.0000 </r>
       <r>   4.2373   0.0000  28.0000 </r>
       <r>   4.4290   0.0000  28.0000 </r>
       <r>   4.6208   0.0000  28.0000 </r>
       <r>   4.8125   0.0000  28.0000 </r>
       <r>   5.0043   0.0000  28.0000 </r>
       <r>   5.1960   0.0000  28.0000 </r>
       <r>   5.3878   0.0000  28.0000 </r>
       <r>   5.5795   0.0000  28.0000 </r>
       <r>   5.7712   0.0000  28.0000 </r>
       <r>   5.9630   0.0000  28.0000 </r>
       <r>   6.1547   0.0000  28.0000 </r>
       <r>   6.3465   0.0000  28.0000 </r>
       <r>   6.5382   0.0000  28.0000 </r>
       <r>   6.7300   0.0000  28.0000 </r>
       <r>   6.9217   0.0000  28.0000 </r>
       <r>   7.1135   0.0000  28.0000 </r>
       <r>   7.3052   0.0000  28.0000 </r>
       <r>   7.4970   0.0000  28.0000 </r>
       <r>   7.6887   0.0000  28.0000 </r>
       <r>   7.8805   0.0000  28.0000 </r>
       <r>   8.0722   0.0000  28.0000 </r>
       <r>   8.2640   0.0000  28.0000 </r>
       <r>   8.4557   0.0000  28.0000 </r>
       <r>   8.6475   0.0000  28.0000 </r>
       <r>   8.8392   0.0000  28.0000 </r>
       <r>   9.0310   0.0000  28.0000 </r>
       <r>   9.2227   0.0000  28.0000 </r>
       <r>   9.4145   0.0000  28.0000 </r>
       <r>   9.6062   0.0000  28.0000 </r>
       <r>   9.7979   0.0000  28.0000 </r>
       <r>   9.9897   0.0000  28.0000 </r>
       <r>  10.1814   0.0000  28.0000 </r>
       <r>  10.3732   0.0000  28.0000 </r>
       <r>  10.5649   0.0000  28.0000 </r>
       <r>  10.7567   1.0887  28.2087 </r>
       <r>  10.9484   4.1265  29.0000 </r>
       <r>  11.1402   0.0000  29.0000 </r>
       <r>  11.3319   0.0000  29.0000 </r>
       <r>  11.5237   0.0000  29.0000 </r>
       <r>  11.7154   0.0000  29.0000 </r>
       <r>  11.9072   0.0000  29.0000 </r>
       <r>  12.0989   0.0000  29.0000 </r>
       <r>  12.2907   0.0000  29.0000 </r>
       <r>  12.4824   0.0000  29.0000 </r>
       <r>  12.6742   0.0000  29.0000 </r>
       <r>  12.8659   0.0000  29.0000 </r>
       <r>  13.0577   0.0000  29.0000 </r>
       <r>  13.2494   0.0000  29.0000 </r>
       <r>  13.4411   7.3361  30.4067 </r>
       <r>  13.6329   8.3094  32.0000 </r>
       <r>  13.8246   0.0000  32.0000 </r>
       <r>  14.0164   0.0000  32.0000 </r>
       <r>  14.2081   0.0000  32.0000 </r>
       <r>  14.3999   0.0000  32.0000 </r>
       <r>  14.5916   0.0000  32.0000 </r>
       <r>  14.7834   0.0000  32.0000 </r>
       <r>  14.9751   0.0000  32.0000 </r>
       <r>  15.1669   0.0301  32.0058 </r>
       <r>  15.3586  15.5271  34.9831 </r>
       <r>  15.5504   0.0883  35.0000 </r>
       <r>  15.7421   0.0000  35.0000 </r>
       <r>  15.9339   0.0000  35.0000 </r>
       <r>  16.1256   0.0000  35.0000 </r>
       <r>  16.3174   1.6985  35.3257 </r>
       <r>  16.5091   3.5167  36.0000 </r>
       <r>  16.7009   0.0000  36.0000 </r>
       <r>  16.8926   0.1267  36.0243 </r>
       <r>  17.0844   5.0870  36.9997 </r>
       <r>  17.2761   0.0015  37.0000 </r>
       <r>  17.4678   0.0000  37.0000 </r>
       <r>  17.6596   0.0000  37.0000 </r>
       <r>  17.8513   0.0000  37.0000 </r>
       <r>  18.0431   0.0000  37.0000 </r>
       <r>  18.2348   0.0000  37.0000 </r>
       <r>  18.4266   0.0000  37.0000 </r>
       <r>  18.6183   0.0000  37.0000 </r>
       <r>  18.8101   0.0000  37.0000 </r>
       <r>  19.0018   0.0000  37.0000 </r>
       <r>  19.1936   0.0000  37.0000 </r>
       <r>  19.3853   0.0000  37.0000 </r>
       <r>  19.5771   0.0000  37.0000 </r>
      </set>
     </set>
    </array>
   </total>
  </dos>
 </calculation>
 <structure name="finalpos" >
  <crystal>
   <varray name="basis" >
    <v>       4.25000841       0.00000000       0.00000000 </v>
    <v>       0.00000000       4.25000841       0.00000000 </v>
    <v>       0.00000000       0.00000000       4.25000841 </v>
   </varray>
   <i name="volume">     76.76608051 </i>
   <varray name="rec_basis" >
    <v>       0.23529365       0.00000000       0.00000000 </v>
    <v>       0.00000000       0.23529365       0.00000000 </v>
    <v>       0.00000000       0.00000000       0.23529365 </v>
   </varray>
  </crystal>
  <varray name="positions" >
   <v>       0.00000000       0.00000000       0.00000000 </v>
   <v>       0.50000000       0.50000000       0.00000000 </v>
   <v>       0.00000000       0.50000000       0.50000000 </v>
   <v>       0.50000000       0.00000000       0.50000000 </v>
   <v>       0.50000000       0.00000000       0.00000000 </v>
   <v>       0.00000000       0.50000000       0.00000000 </v>
   <v>       0.00000000       0.00000000       0.50000000 </v>
   <v>       0.50000000       0.50000000       0.50000000 </v>
  </varray>
 </structure>
</modeling>
