unknown system                          
           1
    10.906394    0.000000    0.000000
     0.000000   10.906394    0.000000
     0.000000    0.000000   10.906394
   Al   Mg
   1 106
Direct configuration=     1
   0.00399594  0.00000000  0.00399594
   0.00216890  0.00000000  0.33137451
   0.00052498  0.00000000  0.66629175
   0.00048254  0.33343923  0.00048254
   0.00054348  0.33306804  0.33331116
   0.00030350  0.33339020  0.66612750
   0.00048254  0.66656077  0.00048254
   0.00054348  0.66693196  0.33331116
   0.00030350  0.66660980  0.66612750
   0.33137451  0.00000000  0.00216890
   0.33130834  0.00000000  0.33130834
   0.33321525  0.00000000  0.66636601
   0.33331116  0.33306804  0.00054348
   0.33299863  0.33265909  0.33299863
   0.33343878  0.33318853  0.66629470
   0.33331116  0.66693196  0.00054348
   0.33299863  0.66734091  0.33299863
   0.33343878  0.66681147  0.66629470
   0.66629175  0.00000000  0.00052498
   0.66636601  0.00000000  0.33321525
   0.66623909  0.00000000  0.66623909
   0.66612750  0.33339020  0.00030350
   0.66629470  0.33318853  0.33343878
   0.66635188  0.33330461  0.66635188
   0.66612750  0.66660980  0.00030350
   0.66629470  0.66681147  0.33343878
   0.66635188  0.66669539  0.66635188
   0.00167282  0.16648431  0.16755981
   0.00057066  0.16626262  0.49911015
   0.00046272  0.16711636  0.83318710
   0.00045638  0.50000000  0.16705595
   0.00035748  0.50000000  0.49962431
   0.00028015  0.50000000  0.83331843
   0.00167282  0.83351569  0.16755981
   0.00057066  0.83373738  0.49911015
   0.00046272  0.83288364  0.83318710
   0.33157547  0.16504788  0.16689040
   0.33292875  0.16619987  0.49909495
   0.33319794  0.16654865  0.83373175
   0.33323089  0.50000000  0.16696400
   0.33327449  0.50000000  0.49949758
   0.33349078  0.50000000  0.83350380
   0.33157547  0.83495212  0.16689040
   0.33292875  0.83380013  0.49909495
   0.33319794  0.83345135  0.83373175
   0.66643226  0.16644765  0.16705371
   0.66635972  0.16651994  0.49958563
   0.66630228  0.16672393  0.83334263
   0.66614677  0.50000000  0.16697600
   0.66643627  0.50000000  0.49976296
   0.66634981  0.50000000  0.83335847
   0.66643226  0.83355235  0.16705371
   0.66635972  0.83348006  0.49958563
   0.66630228  0.83327607  0.83334263
   0.16687039  0.00000000  0.49880409
   0.16740315  0.00000000  0.83426805
   0.16708909  0.33272374  0.16708909
   0.16693627  0.33314729  0.49969987
   0.16712550  0.33367048  0.83296399
   0.16708909  0.66727626  0.16708909
   0.16693627  0.66685271  0.49969987
   0.16712550  0.66632952  0.83296399
   0.49880409  0.00000000  0.16687039
   0.49948806  0.00000000  0.49948806
   0.49967702  0.00000000  0.83347788
   0.49969987  0.33314729  0.16693627
   0.49961402  0.33310719  0.49961402
   0.49971398  0.33324892  0.83345496
   0.49969987  0.66685271  0.16693627
   0.49961402  0.66689281  0.49961402
   0.49971398  0.66675108  0.83345496
   0.83426805  0.00000000  0.16740315
   0.83347788  0.00000000  0.49967702
   0.83341051  0.00000000  0.83341051
   0.83296399  0.33367048  0.16712550
   0.83345496  0.33324892  0.49971398
   0.83325070  0.33343680  0.83325070
   0.83296399  0.66632952  0.16712550
   0.83345496  0.66675108  0.49971398
   0.83325070  0.66656320  0.83325070
   0.16755981  0.16648431  0.00167282
   0.16689040  0.16504788  0.33157547
   0.16705371  0.16644765  0.66643226
   0.16705595  0.50000000  0.00045638
   0.16696400  0.50000000  0.33323089
   0.16697600  0.50000000  0.66614677
   0.16755981  0.83351569  0.00167282
   0.16689040  0.83495212  0.33157547
   0.16705371  0.83355235  0.66643226
   0.49911015  0.16626262  0.00057066
   0.49909495  0.16619987  0.33292875
   0.49958563  0.16651994  0.66635972
   0.49962431  0.50000000  0.00035748
   0.49949758  0.50000000  0.33327449
   0.49976296  0.50000000  0.66643627
   0.49911015  0.83373738  0.00057066
   0.49909495  0.83380013  0.33292875
   0.49958563  0.83348006  0.66635972
   0.83318710  0.16711636  0.00046272
   0.83373175  0.16654865  0.33319794
   0.83334263  0.16672393  0.66630228
   0.83331843  0.50000000  0.00028015
   0.83350380  0.50000000  0.33349078
   0.83335847  0.50000000  0.66634981
   0.83318710  0.83288364  0.00046272
   0.83373175  0.83345135  0.33319794
   0.83334263  0.83327607  0.66630228
