 107 107   0   0
  0.1212439E+02  0.1090639E-08  0.1090639E-08  0.1090639E-08  0.5000000E-15
  1.000000000000000E-004
  CAR 
 unknown system                          
     26.89697377     -7.52966095  301      3.68588042      1.00000000
     -7.530  0.0000E+00  0.0000E+00  0.0000E+00  0.0000E+00
     -7.415  0.0000E+00  0.0000E+00  0.0000E+00  0.0000E+00
     -7.300  0.0000E+00  0.0000E+00  0.0000E+00  0.0000E+00
     -7.185  0.0000E+00  0.0000E+00  0.0000E+00  0.0000E+00
     -7.071  0.0000E+00  0.0000E+00  0.0000E+00  0.0000E+00
     -6.956  0.0000E+00  0.0000E+00  0.0000E+00  0.0000E+00
     -6.841  0.0000E+00  0.0000E+00  0.0000E+00  0.0000E+00
     -6.726  0.0000E+00  0.0000E+00  0.0000E+00  0.0000E+00
     -6.612  0.0000E+00  0.0000E+00  0.0000E+00  0.0000E+00
     -6.497  0.0000E+00  0.0000E+00  0.0000E+00  0.0000E+00
     -6.382  0.0000E+00  0.0000E+00  0.0000E+00  0.0000E+00
     -6.267  0.0000E+00  0.0000E+00  0.0000E+00  0.0000E+00
     -6.153  0.0000E+00  0.0000E+00  0.0000E+00  0.0000E+00
     -6.038  0.0000E+00  0.0000E+00  0.0000E+00  0.0000E+00
     -5.923  0.0000E+00  0.0000E+00  0.0000E+00  0.0000E+00
     -5.808  0.0000E+00  0.0000E+00  0.0000E+00  0.0000E+00
     -5.694  0.0000E+00  0.0000E+00  0.0000E+00  0.0000E+00
     -5.579  0.0000E+00  0.0000E+00  0.0000E+00  0.0000E+00
     -5.464  0.1145E+01  0.1143E+01  0.7152E-01  0.7132E-01
     -5.349  0.2934E+01  0.2932E+01  0.3330E+00  0.3324E+00
     -5.235  0.2940E+01  0.2940E+01  0.6787E+00  0.6781E+00
     -5.120  0.1113E+01  0.1115E+01  0.9412E+00  0.9409E+00
     -5.005  0.3799E+01  0.3795E+01  0.1154E+01  0.1153E+01
     -4.890  0.3415E+01  0.3418E+01  0.1702E+01  0.1702E+01
     -4.776  0.3037E+01  0.3037E+01  0.2104E+01  0.2104E+01
     -4.661  0.2087E+01  0.2080E+01  0.2461E+01  0.2460E+01
     -4.546  0.9543E+01  0.9380E+01  0.2949E+01  0.2947E+01
     -4.431  0.4366E+01  0.4366E+01  0.3711E+01  0.3710E+01
     -4.317  0.2361E+01  0.2355E+01  0.4165E+01  0.4165E+01
     -4.202  0.5060E+01  0.5060E+01  0.4598E+01  0.4597E+01
     -4.087  0.3917E+01  0.3918E+01  0.5216E+01  0.5215E+01
     -3.972  0.4538E+01  0.4552E+01  0.6135E+01  0.6135E+01
     -3.857  0.1243E+02  0.1238E+02  0.6736E+01  0.6734E+01
     -3.743  0.2820E+01  0.2793E+01  0.7251E+01  0.7250E+01
     -3.628  0.0000E+00  0.0000E+00  0.8000E+01  0.8000E+01
     -3.513  0.3442E+01  0.3437E+01  0.8865E+01  0.8865E+01
     -3.398  0.9024E+01  0.9045E+01  0.9627E+01  0.9626E+01
     -3.284  0.4410E+01  0.4412E+01  0.1038E+02  0.1037E+02
     -3.169  0.9098E+01  0.9070E+01  0.1107E+02  0.1107E+02
     -3.054  0.7989E+01  0.8061E+01  0.1235E+02  0.1235E+02
     -2.939  0.8638E+01  0.8648E+01  0.1359E+02  0.1358E+02
     -2.825  0.8929E+01  0.8937E+01  0.1452E+02  0.1452E+02
     -2.710  0.6873E+01  0.6878E+01  0.1584E+02  0.1584E+02
     -2.595  0.3295E+01  0.3293E+01  0.1643E+02  0.1643E+02
     -2.480  0.7774E+01  0.7756E+01  0.1700E+02  0.1700E+02
     -2.366  0.1876E+02  0.1876E+02  0.1888E+02  0.1888E+02
     -2.251  0.9345E+01  0.9342E+01  0.2071E+02  0.2071E+02
     -2.136  0.1065E+02  0.1064E+02  0.2195E+02  0.2194E+02
     -2.021  0.2018E+02  0.2017E+02  0.2295E+02  0.2294E+02
     -1.907  0.1496E+02  0.1493E+02  0.2466E+02  0.2466E+02
     -1.792  0.1483E+02  0.1487E+02  0.2641E+02  0.2641E+02
     -1.677  0.2540E+02  0.2545E+02  0.2903E+02  0.2902E+02
     -1.562  0.4771E+01  0.4771E+01  0.3100E+02  0.3100E+02
     -1.448  0.4855E+01  0.4858E+01  0.3260E+02  0.3260E+02
     -1.333  0.3947E+02  0.3957E+02  0.3679E+02  0.3679E+02
     -1.218  0.3466E+02  0.3466E+02  0.4149E+02  0.4149E+02
     -1.103  0.5543E+02  0.5547E+02  0.4683E+02  0.4683E+02
     -0.989  0.4055E+02  0.4064E+02  0.5451E+02  0.5451E+02
     -0.874  0.3538E+02  0.3538E+02  0.6141E+02  0.6141E+02
     -0.759  0.4631E+02  0.4629E+02  0.6912E+02  0.6912E+02
     -0.644  0.9261E+02  0.9275E+02  0.7830E+02  0.7830E+02
     -0.530  0.7667E+02  0.7699E+02  0.8957E+02  0.8957E+02
     -0.415  0.1103E+03  0.1104E+03  0.1027E+03  0.1027E+03
     -0.300  0.1065E+03  0.1067E+03  0.1183E+03  0.1183E+03
     -0.185  0.8110E+02  0.8075E+02  0.1319E+03  0.1319E+03
     -0.071  0.1428E+03  0.1425E+03  0.1450E+03  0.1450E+03
      0.044  0.1044E+03  0.1035E+03  0.1592E+03  0.1592E+03
      0.159  0.1004E+03  0.1003E+03  0.1724E+03  0.1725E+03
      0.274  0.1467E+03  0.1464E+03  0.1887E+03  0.1887E+03
      0.388  0.1949E+03  0.1953E+03  0.2083E+03  0.2083E+03
      0.503  0.1841E+03  0.1830E+03  0.2265E+03  0.2265E+03
      0.618  0.2137E+03  0.1926E+03  0.2500E+03  0.2500E+03
      0.733  0.2224E+03  0.2134E+03  0.2745E+03  0.2745E+03
      0.847  0.2825E+03  0.2800E+03  0.3020E+03  0.3020E+03
      0.962  0.1471E+03  0.1462E+03  0.3247E+03  0.3248E+03
      1.077  0.1244E+03  0.1242E+03  0.3429E+03  0.3430E+03
      1.192  0.1219E+03  0.1210E+03  0.3598E+03  0.3598E+03
      1.307  0.1657E+03  0.1653E+03  0.3790E+03  0.3790E+03
      1.421  0.2014E+03  0.2001E+03  0.4030E+03  0.4030E+03
      1.536  0.1859E+03  0.1858E+03  0.4258E+03  0.4258E+03
      1.651  0.1417E+03  0.1437E+03  0.4461E+03  0.4461E+03
      1.766  0.1645E+03  0.1664E+03  0.4664E+03  0.4664E+03
      1.880  0.1515E+03  0.1538E+03  0.4899E+03  0.4899E+03
      1.995  0.3220E+03  0.3320E+03  0.5218E+03  0.5218E+03
      2.110  0.1629E+03  0.1650E+03  0.5499E+03  0.5499E+03
      2.225  0.2182E+02  0.2181E+02  0.5571E+03  0.5571E+03
      2.339  0.1620E+02  0.1620E+02  0.5594E+03  0.5594E+03
      2.454  0.1871E+02  0.1871E+02  0.5628E+03  0.5628E+03
      2.569  0.1384E+02  0.1383E+02  0.5645E+03  0.5645E+03
      2.684  0.6527E+01  0.6525E+01  0.5663E+03  0.5663E+03
      2.798  0.2544E+02  0.2545E+02  0.5688E+03  0.5688E+03
      2.913  0.1743E+02  0.1742E+02  0.5717E+03  0.5717E+03
      3.028  0.5838E+01  0.5837E+01  0.5730E+03  0.5730E+03
      3.143  0.2532E+02  0.2532E+02  0.5753E+03  0.5753E+03
      3.257  0.1363E+02  0.1363E+02  0.5778E+03  0.5778E+03
      3.372  0.1584E+02  0.1584E+02  0.5801E+03  0.5801E+03
      3.487  0.1340E+02  0.1340E+02  0.5819E+03  0.5819E+03
      3.602  0.9049E+01  0.9047E+01  0.5835E+03  0.5835E+03
      3.716  0.1467E+02  0.1467E+02  0.5849E+03  0.5849E+03
      3.831  0.1969E+02  0.1970E+02  0.5869E+03  0.5869E+03
      3.946  0.1879E+02  0.1879E+02  0.5884E+03  0.5884E+03
      4.061  0.2894E+02  0.2891E+02  0.5914E+03  0.5914E+03
      4.175  0.1063E+02  0.1061E+02  0.5933E+03  0.5933E+03
      4.290  0.5284E+01  0.5284E+01  0.5942E+03  0.5942E+03
      4.405  0.1149E+02  0.1149E+02  0.5952E+03  0.5952E+03
      4.520  0.1781E+02  0.1780E+02  0.5969E+03  0.5969E+03
      4.634  0.1113E+02  0.1113E+02  0.5988E+03  0.5988E+03
      4.749  0.2296E+02  0.2287E+02  0.6006E+03  0.6006E+03
      4.864  0.1531E+02  0.1526E+02  0.6029E+03  0.6029E+03
      4.979  0.1564E+02  0.1565E+02  0.6046E+03  0.6046E+03
      5.093  0.1568E+02  0.1567E+02  0.6063E+03  0.6063E+03
      5.208  0.8743E+01  0.8734E+01  0.6079E+03  0.6079E+03
      5.323  0.1222E+02  0.1222E+02  0.6091E+03  0.6091E+03
      5.438  0.7848E+01  0.7849E+01  0.6105E+03  0.6105E+03
      5.552  0.1408E+02  0.1409E+02  0.6119E+03  0.6119E+03
      5.667  0.6813E+01  0.6820E+01  0.6131E+03  0.6131E+03
      5.782  0.2251E+02  0.2241E+02  0.6145E+03  0.6145E+03
      5.897  0.3255E+02  0.3256E+02  0.6166E+03  0.6166E+03
      6.011  0.8456E+01  0.8449E+01  0.6180E+03  0.6180E+03
      6.126  0.9063E+01  0.9063E+01  0.6192E+03  0.6192E+03
      6.241  0.1388E+02  0.1390E+02  0.6207E+03  0.6207E+03
      6.356  0.6291E+01  0.6313E+01  0.6220E+03  0.6220E+03
      6.471  0.7578E+01  0.7572E+01  0.6228E+03  0.6228E+03
      6.585  0.1100E+02  0.1100E+02  0.6240E+03  0.6240E+03
      6.700  0.2267E+02  0.2299E+02  0.6252E+03  0.6252E+03
      6.815  0.5642E+01  0.5641E+01  0.6263E+03  0.6263E+03
      6.930  0.1453E+02  0.1453E+02  0.6273E+03  0.6273E+03
      7.044  0.1261E+02  0.1265E+02  0.6285E+03  0.6285E+03
      7.159  0.1385E+02  0.1393E+02  0.6299E+03  0.6299E+03
      7.274  0.1633E+02  0.1637E+02  0.6314E+03  0.6314E+03
      7.389  0.1660E+02  0.1647E+02  0.6328E+03  0.6328E+03
      7.503  0.6041E+01  0.6042E+01  0.6337E+03  0.6337E+03
      7.618  0.1412E+02  0.1409E+02  0.6347E+03  0.6347E+03
      7.733  0.1315E+02  0.1315E+02  0.6365E+03  0.6365E+03
      7.848  0.1643E+02  0.1646E+02  0.6390E+03  0.6390E+03
      7.962  0.2694E+02  0.2681E+02  0.6409E+03  0.6409E+03
      8.077  0.1454E+02  0.1458E+02  0.6423E+03  0.6423E+03
      8.192  0.1416E+02  0.1415E+02  0.6438E+03  0.6438E+03
      8.307  0.1671E+02  0.1670E+02  0.6459E+03  0.6459E+03
      8.421  0.1232E+02  0.1232E+02  0.6478E+03  0.6478E+03
      8.536  0.1657E+02  0.1656E+02  0.6495E+03  0.6495E+03
      8.651  0.1494E+02  0.1497E+02  0.6516E+03  0.6516E+03
      8.766  0.2306E+01  0.2306E+01  0.6532E+03  0.6532E+03
      8.880  0.1816E+02  0.1816E+02  0.6547E+03  0.6547E+03
      8.995  0.9150E+01  0.9235E+01  0.6571E+03  0.6571E+03
      9.110  0.1191E+02  0.1200E+02  0.6578E+03  0.6578E+03
      9.225  0.1367E+02  0.1376E+02  0.6591E+03  0.6591E+03
      9.339  0.1465E+02  0.1465E+02  0.6609E+03  0.6609E+03
      9.454  0.1172E+02  0.1170E+02  0.6626E+03  0.6626E+03
      9.569  0.2036E+02  0.2030E+02  0.6646E+03  0.6646E+03
      9.684  0.9476E+01  0.9499E+01  0.6668E+03  0.6668E+03
      9.798  0.8156E+01  0.8152E+01  0.6677E+03  0.6677E+03
      9.913  0.1465E+02  0.1463E+02  0.6689E+03  0.6689E+03
     10.028  0.2191E+02  0.2175E+02  0.6707E+03  0.6707E+03
     10.143  0.1011E+02  0.1011E+02  0.6725E+03  0.6725E+03
     10.257  0.6920E+01  0.6909E+01  0.6736E+03  0.6736E+03
     10.372  0.1660E+02  0.1664E+02  0.6750E+03  0.6750E+03
     10.487  0.1218E+02  0.1220E+02  0.6765E+03  0.6765E+03
     10.602  0.1048E+02  0.1049E+02  0.6780E+03  0.6780E+03
     10.716  0.1352E+02  0.1351E+02  0.6796E+03  0.6796E+03
     10.831  0.1634E+02  0.1630E+02  0.6816E+03  0.6816E+03
     10.946  0.1723E+02  0.1708E+02  0.6834E+03  0.6834E+03
     11.061  0.1642E+02  0.1635E+02  0.6856E+03  0.6856E+03
     11.175  0.2164E+02  0.2164E+02  0.6877E+03  0.6877E+03
     11.290  0.8788E+01  0.8801E+01  0.6897E+03  0.6897E+03
     11.405  0.1120E+02  0.1120E+02  0.6913E+03  0.6913E+03
     11.520  0.2559E+02  0.2621E+02  0.6933E+03  0.6933E+03
     11.634  0.1472E+02  0.1472E+02  0.6949E+03  0.6949E+03
     11.749  0.1690E+02  0.1690E+02  0.6966E+03  0.6966E+03
     11.864  0.1650E+02  0.1650E+02  0.6987E+03  0.6987E+03
     11.979  0.1759E+02  0.1759E+02  0.7007E+03  0.7007E+03
     12.094  0.2195E+02  0.2195E+02  0.7032E+03  0.7032E+03
     12.208  0.2642E+02  0.2644E+02  0.7062E+03  0.7062E+03
     12.323  0.2261E+02  0.2260E+02  0.7091E+03  0.7091E+03
     12.438  0.1391E+02  0.1387E+02  0.7110E+03  0.7110E+03
     12.553  0.1475E+02  0.1470E+02  0.7127E+03  0.7127E+03
     12.667  0.1399E+02  0.1399E+02  0.7146E+03  0.7146E+03
     12.782  0.2553E+02  0.2563E+02  0.7171E+03  0.7171E+03
     12.897  0.2289E+02  0.2292E+02  0.7199E+03  0.7199E+03
     13.012  0.2311E+02  0.2297E+02  0.7224E+03  0.7224E+03
     13.126  0.1425E+02  0.1425E+02  0.7243E+03  0.7243E+03
     13.241  0.1449E+02  0.1447E+02  0.7262E+03  0.7262E+03
     13.356  0.1500E+02  0.1499E+02  0.7278E+03  0.7278E+03
     13.471  0.1480E+02  0.1471E+02  0.7295E+03  0.7295E+03
     13.585  0.2560E+02  0.2561E+02  0.7315E+03  0.7315E+03
     13.700  0.1600E+02  0.1601E+02  0.7345E+03  0.7345E+03
     13.815  0.2623E+02  0.2627E+02  0.7371E+03  0.7371E+03
     13.930  0.1934E+02  0.1935E+02  0.7393E+03  0.7393E+03
     14.044  0.2367E+02  0.2349E+02  0.7419E+03  0.7419E+03
     14.159  0.1264E+02  0.1262E+02  0.7444E+03  0.7444E+03
     14.274  0.1363E+02  0.1370E+02  0.7469E+03  0.7469E+03
     14.389  0.1132E+02  0.1136E+02  0.7490E+03  0.7490E+03
     14.503  0.2107E+02  0.2108E+02  0.7510E+03  0.7510E+03
     14.618  0.2157E+02  0.2154E+02  0.7533E+03  0.7533E+03
     14.733  0.4097E+02  0.4258E+02  0.7562E+03  0.7562E+03
     14.848  0.1636E+02  0.1636E+02  0.7586E+03  0.7586E+03
     14.962  0.2873E+02  0.2890E+02  0.7606E+03  0.7606E+03
     15.077  0.1668E+02  0.1667E+02  0.7631E+03  0.7631E+03
     15.192  0.2327E+02  0.2326E+02  0.7660E+03  0.7660E+03
     15.307  0.2622E+02  0.2624E+02  0.7685E+03  0.7685E+03
     15.421  0.1960E+02  0.1951E+02  0.7704E+03  0.7704E+03
     15.536  0.2564E+02  0.2533E+02  0.7725E+03  0.7725E+03
     15.651  0.9813E+01  0.9823E+01  0.7758E+03  0.7758E+03
     15.766  0.1191E+02  0.1190E+02  0.7771E+03  0.7771E+03
     15.880  0.2545E+02  0.2542E+02  0.7793E+03  0.7793E+03
     15.995  0.2406E+02  0.2437E+02  0.7826E+03  0.7826E+03
     16.110  0.3332E+02  0.3275E+02  0.7852E+03  0.7852E+03
     16.225  0.1608E+02  0.1611E+02  0.7878E+03  0.7878E+03
     16.339  0.1105E+02  0.1106E+02  0.7902E+03  0.7902E+03
     16.454  0.2087E+02  0.2087E+02  0.7928E+03  0.7928E+03
     16.569  0.1548E+02  0.1574E+02  0.7955E+03  0.7955E+03
     16.684  0.2747E+02  0.2736E+02  0.7977E+03  0.7977E+03
     16.798  0.2749E+02  0.2842E+02  0.8010E+03  0.8010E+03
     16.913  0.3428E+02  0.3431E+02  0.8044E+03  0.8044E+03
     17.028  0.2420E+02  0.2418E+02  0.8074E+03  0.8074E+03
     17.143  0.1877E+02  0.1853E+02  0.8103E+03  0.8103E+03
     17.258  0.1873E+02  0.1874E+02  0.8128E+03  0.8128E+03
     17.372  0.2507E+02  0.2503E+02  0.8154E+03  0.8154E+03
     17.487  0.2677E+02  0.2678E+02  0.8185E+03  0.8185E+03
     17.602  0.1994E+02  0.1986E+02  0.8209E+03  0.8209E+03
     17.717  0.1688E+02  0.1704E+02  0.8225E+03  0.8225E+03
     17.831  0.2565E+02  0.2540E+02  0.8253E+03  0.8253E+03
     17.946  0.1537E+02  0.1540E+02  0.8275E+03  0.8275E+03
     18.061  0.3518E+02  0.3522E+02  0.8303E+03  0.8303E+03
     18.176  0.3563E+02  0.3673E+02  0.8338E+03  0.8338E+03
     18.290  0.1694E+02  0.1693E+02  0.8362E+03  0.8361E+03
     18.405  0.1977E+02  0.1977E+02  0.8389E+03  0.8389E+03
     18.520  0.1519E+02  0.1518E+02  0.8410E+03  0.8410E+03
     18.635  0.1610E+02  0.1611E+02  0.8428E+03  0.8428E+03
     18.749  0.2037E+02  0.2036E+02  0.8453E+03  0.8453E+03
     18.864  0.2613E+02  0.2615E+02  0.8483E+03  0.8483E+03
     18.979  0.2574E+02  0.2616E+02  0.8511E+03  0.8511E+03
     19.094  0.1324E+02  0.1325E+02  0.8531E+03  0.8531E+03
     19.208  0.1496E+02  0.1497E+02  0.8549E+03  0.8549E+03
     19.323  0.2165E+02  0.2164E+02  0.8575E+03  0.8575E+03
     19.438  0.1899E+02  0.1899E+02  0.8602E+03  0.8602E+03
     19.553  0.2120E+02  0.2121E+02  0.8630E+03  0.8630E+03
     19.667  0.1712E+02  0.1713E+02  0.8654E+03  0.8654E+03
     19.782  0.1843E+02  0.1819E+02  0.8676E+03  0.8676E+03
     19.897  0.1921E+02  0.1919E+02  0.8699E+03  0.8699E+03
     20.012  0.1098E+02  0.1099E+02  0.8720E+03  0.8720E+03
     20.126  0.1006E+02  0.1007E+02  0.8735E+03  0.8735E+03
     20.241  0.1833E+02  0.1830E+02  0.8751E+03  0.8751E+03
     20.356  0.1692E+02  0.1688E+02  0.8770E+03  0.8770E+03
     20.471  0.2384E+02  0.2392E+02  0.8794E+03  0.8793E+03
     20.585  0.1622E+02  0.1621E+02  0.8815E+03  0.8815E+03
     20.700  0.1440E+02  0.1440E+02  0.8834E+03  0.8834E+03
     20.815  0.1585E+02  0.1372E+02  0.8852E+03  0.8852E+03
     20.930  0.1804E+02  0.1806E+02  0.8871E+03  0.8871E+03
     21.044  0.1615E+02  0.1617E+02  0.8893E+03  0.8893E+03
     21.159  0.1781E+02  0.1781E+02  0.8914E+03  0.8914E+03
     21.274  0.1766E+02  0.1764E+02  0.8936E+03  0.8936E+03
     21.389  0.2419E+02  0.2352E+02  0.8958E+03  0.8958E+03
     21.503  0.1825E+02  0.1825E+02  0.8978E+03  0.8978E+03
     21.618  0.1711E+02  0.1711E+02  0.8998E+03  0.8998E+03
     21.733  0.2231E+02  0.2232E+02  0.9023E+03  0.9023E+03
     21.848  0.1662E+02  0.1662E+02  0.9046E+03  0.9046E+03
     21.962  0.1820E+02  0.1818E+02  0.9067E+03  0.9067E+03
     22.077  0.1535E+02  0.1535E+02  0.9086E+03  0.9086E+03
     22.192  0.1563E+02  0.1563E+02  0.9105E+03  0.9105E+03
     22.307  0.1732E+02  0.1732E+02  0.9126E+03  0.9126E+03
     22.422  0.1812E+02  0.1806E+02  0.9149E+03  0.9149E+03
     22.536  0.5014E+02  0.3493E+02  0.9170E+03  0.9170E+03
     22.651  0.2241E+02  0.2228E+02  0.9191E+03  0.9191E+03
     22.766  0.1909E+02  0.1906E+02  0.9214E+03  0.9214E+03
     22.881  0.2766E+02  0.2774E+02  0.9241E+03  0.9241E+03
     22.995  0.2454E+02  0.3340E+02  0.9271E+03  0.9271E+03
     23.110  0.2635E+02  0.2634E+02  0.9305E+03  0.9305E+03
     23.225  0.1562E+02  0.1557E+02  0.9325E+03  0.9325E+03
     23.340  0.1980E+02  0.1970E+02  0.9346E+03  0.9346E+03
     23.454  0.2736E+02  0.2736E+02  0.9378E+03  0.9378E+03
     23.569  0.2782E+02  0.2783E+02  0.9407E+03  0.9407E+03
     23.684  0.1743E+02  0.1743E+02  0.9435E+03  0.9435E+03
     23.799  0.2148E+02  0.2147E+02  0.9457E+03  0.9457E+03
     23.913  0.3395E+02  0.3394E+02  0.9488E+03  0.9488E+03
     24.028  0.2518E+02  0.2518E+02  0.9523E+03  0.9523E+03
     24.143  0.3028E+02  0.3018E+02  0.9557E+03  0.9557E+03
     24.258  0.1570E+02  0.1567E+02  0.9582E+03  0.9582E+03
     24.372  0.3294E+02  0.3293E+02  0.9613E+03  0.9613E+03
     24.487  0.2511E+02  0.2511E+02  0.9656E+03  0.9656E+03
     24.602  0.1119E+02  0.1182E+02  0.9677E+03  0.9677E+03
     24.717  0.2287E+02  0.2132E+02  0.9697E+03  0.9697E+03
     24.831  0.9240E+01  0.6861E+01  0.9719E+03  0.9717E+03
     24.946  0.0000E+00  0.0000E+00  0.9720E+03  0.9720E+03
     25.061  0.0000E+00  0.0000E+00  0.9720E+03  0.9720E+03
     25.176  0.0000E+00  0.0000E+00  0.9720E+03  0.9720E+03
     25.290  0.0000E+00  0.0000E+00  0.9720E+03  0.9720E+03
     25.405  0.0000E+00  0.0000E+00  0.9720E+03  0.9720E+03
     25.520  0.0000E+00  0.0000E+00  0.9720E+03  0.9720E+03
     25.635  0.0000E+00  0.0000E+00  0.9720E+03  0.9720E+03
     25.749  0.0000E+00  0.0000E+00  0.9720E+03  0.9720E+03
     25.864  0.0000E+00  0.0000E+00  0.9720E+03  0.9720E+03
     25.979  0.0000E+00  0.0000E+00  0.9720E+03  0.9720E+03
     26.094  0.0000E+00  0.0000E+00  0.9720E+03  0.9720E+03
     26.208  0.0000E+00  0.0000E+00  0.9720E+03  0.9720E+03
     26.323  0.0000E+00  0.0000E+00  0.9720E+03  0.9720E+03
     26.438  0.0000E+00  0.0000E+00  0.9720E+03  0.9720E+03
     26.553  0.0000E+00  0.0000E+00  0.9720E+03  0.9720E+03
     26.667  0.0000E+00  0.0000E+00  0.9720E+03  0.9720E+03
     26.782  0.0000E+00  0.0000E+00  0.9720E+03  0.9720E+03
     26.897  0.0000E+00  0.0000E+00  0.9720E+03  0.9720E+03
