<?xml version="1.0" encoding="ISO-8859-1"?>
<modeling>
 <generator>
  <i name="program" type="string">vasp </i>
  <i name="version" type="string">5.2.2  </i>
  <i name="subversion" type="string">15Apr09 complex  parallel </i>
  <i name="platform" type="string">LinuxIFC </i>
  <i name="date" type="string">2013 06 20 </i>
  <i name="time" type="string">09:02:47 </i>
 </generator>
 <incar>
  <i type="string" name="PREC">accurate</i>
  <i type="int" name="IBRION">     1</i>
  <i type="int" name="NSW">   191</i>
  <i type="int" name="ISIF">     2</i>
  <i name="ENCUT">    334.88375000</i>
  <i name="POTIM">      0.50000000</i>
  <i type="int" name="ISMEAR">     1</i>
  <i name="SIGMA">      0.20000000</i>
  <i type="logical" name="LWAVE"> F  </i>
  <i type="logical" name="LCHARG"> F  </i>
  <i type="logical" name="LPEAD"> F  </i>
  <i type="logical" name="LCALCPOL"> F  </i>
  <i type="logical" name="LCALCEPS"> F  </i>
  <v name="EFIELD_PEAD">      0.00000000      0.00000000      0.00000000</v>
  <i type="logical" name="LEFG"> F  </i>
 </incar>
 <kpoints>
  <generation param="Monkhorst-Pack">
   <v type="int" name="divisions">       2        2        2 </v>
   <v name="usershift">      0.00000000       0.00000000       0.00000000 </v>
   <v name="genvec1">      0.50000000       0.00000000       0.00000000 </v>
   <v name="genvec2">      0.00000000       0.50000000       0.00000000 </v>
   <v name="genvec3">      0.00000000       0.00000000       0.50000000 </v>
   <v name="shift">      0.50000000       0.50000000       0.50000000 </v>
  </generation>
  <varray name="kpointlist" >
   <v>       0.25000000       0.25000000       0.25000000 </v>
   <v>       0.25000000      -0.25000000       0.25000000 </v>
  </varray>
  <varray name="weights" >
   <v>       0.50000000 </v>
   <v>       0.50000000 </v>
  </varray>
 </kpoints>
 <parameters>
  <separator name="general" >
   <i type="string" name="SYSTEM">unknown system</i>
   <i type="logical" name="LCOMPAT"> F  </i>
  </separator>
  <separator name="electronic" >
   <i type="string" name="PREC">accura</i>
   <i name="ENMAX">    334.88375000</i>
   <i name="ENAUG">    511.36800000</i>
   <i name="EDIFF">      0.00010000</i>
   <i type="int" name="IALGO">    38</i>
   <i type="int" name="IWAVPR">    11</i>
   <i type="int" name="NBANDS">    16</i>
   <i name="NELECT">     24.00000000</i>
   <separator name="electronic smearing" >
    <i type="int" name="ISMEAR">     1</i>
    <i name="SIGMA">      0.20000000</i>
   </separator>
   <separator name="electronic projectors" >
    <i type="logical" name="LREAL"> F  </i>
    <v name="ROPT">      0.00000000</v>
    <i type="int" name="LMAXPAW">  -100</i>
    <i type="int" name="LMAXMIX">     2</i>
   </separator>
   <separator name="electronic startup" >
    <i type="int" name="ISTART">     0</i>
    <i type="int" name="ICHARG">     2</i>
    <i type="int" name="INIWAV">     1</i>
   </separator>
   <separator name="electronic spin" >
    <i type="int" name="ISPIN">     1</i>
    <i type="logical" name="LNONCOLLINEAR"> F  </i>
    <v name="MAGMOM">      1.00000000      1.00000000      1.00000000</v>
    <i name="NUPDOWN">     -1.00000000</i>
    <i type="logical" name="LSORBIT"> F  </i>
    <v name="SAXIS">      0.00000000      0.00000000      1.00000000</v>
    <i type="logical" name="LSPIRAL"> F  </i>
    <v name="QSPIRAL">      0.00000000      0.00000000      0.00000000</v>
    <i type="logical" name="LZEROZ"> F  </i>
   </separator>
   <separator name="electronic exchange-correlation" >
    <i type="logical" name="LASPH"> F  </i>
    <i type="logical" name="LMETAGGA"> F  </i>
   </separator>
   <separator name="electronic convergence" >
    <i type="int" name="NELM">    60</i>
    <i type="int" name="NELMDL">    -5</i>
    <i type="int" name="NELMIN">     2</i>
    <i name="ENINI">    334.88375000</i>
    <separator name="electronic convergence detail" >
     <i type="logical" name="LDIAG"> T  </i>
     <i name="WEIMIN">      0.00100000</i>
     <i name="EBREAK">      0.00000156</i>
     <i name="DEPER">      0.30000000</i>
     <i type="int" name="NRMM">     4</i>
     <i name="TIME">      0.40000000</i>
    </separator>
   </separator>
   <separator name="electronic mixer" >
    <i name="AMIX">      0.40000000</i>
    <i name="BMIX">      1.00000000</i>
    <i name="AMIN">      0.10000000</i>
    <i name="AMIX_MAG">      1.60000000</i>
    <i name="BMIX_MAG">      1.00000000</i>
    <separator name="electronic mixer details" >
     <i type="int" name="IMIX">     4</i>
     <i type="int" name="MAXMIX">   -45</i>
     <i name="WC">    100.00000000</i>
     <i type="int" name="INIMIX">     1</i>
     <i type="int" name="MIXPRE">     1</i>
     <i type="int" name="MREMOVE">     5</i>
    </separator>
   </separator>
   <separator name="electronic dipolcorrection" >
    <i type="logical" name="LDIPOL"> F  </i>
    <i type="logical" name="LMONO"> F  </i>
    <i type="int" name="IDIPOL">     0</i>
    <i name="EPSILON">      1.00000000</i>
    <v name="DIPOL">   -100.00000000   -100.00000000   -100.00000000</v>
    <i name="EFIELD">      0.00000000</i>
   </separator>
  </separator>
  <separator name="grids" >
   <i type="int" name="NGX">    24</i>
   <i type="int" name="NGY">    24</i>
   <i type="int" name="NGZ">    24</i>
   <i type="int" name="NGXF">    48</i>
   <i type="int" name="NGYF">    48</i>
   <i type="int" name="NGZF">    48</i>
   <i type="logical" name="ADDGRID"> F  </i>
  </separator>
  <separator name="ionic" >
   <i type="int" name="NSW">   191</i>
   <i type="int" name="IBRION">     1</i>
   <i type="int" name="ISIF">     2</i>
   <i name="PSTRESS">      0.00000000</i>
   <i name="EDIFFG">      0.00100000</i>
   <i type="int" name="NFREE">     0</i>
   <i name="POTIM">      0.50000000</i>
   <i name="SMASS">     -3.00000000</i>
  </separator>
  <separator name="ionic md" >
   <i name="TEBEG">      0.00010000</i>
   <i name="TEEND">      0.00010000</i>
   <i type="int" name="NBLOCK">     1</i>
   <i type="int" name="KBLOCK">   191</i>
   <i type="int" name="NPACO">   256</i>
   <i name="APACO">     16.00000000</i>
  </separator>
  <separator name="symmetry" >
   <i type="int" name="ISYM">     2</i>
   <i name="SYMPREC">      0.00001000</i>
  </separator>
  <separator name="dos" >
   <i type="logical" name="LORBIT"> F  </i>
   <v name="RWIGS">     -1.00000000</v>
   <i type="int" name="NEDOS">   301</i>
   <i name="EMIN">     10.00000000</i>
   <i name="EMAX">    -10.00000000</i>
   <i name="EFERMI">      0.00000000</i>
  </separator>
  <separator name="writing" >
   <i type="int" name="NWRITE">     2</i>
   <i type="logical" name="LWAVE"> F  </i>
   <i type="logical" name="LCHARG"> F  </i>
   <i type="logical" name="LPARD"> F  </i>
   <i type="logical" name="LVTOT"> F  </i>
   <i type="logical" name="LELF"> F  </i>
   <i type="logical" name="LOPTICS"> F  </i>
   <v name="STM">      0.00000000      0.00000000      0.00000000      0.00000000      0.00000000</v>
  </separator>
  <separator name="performance" >
   <i type="int" name="NPAR">     1</i>
   <i type="int" name="NSIM">     4</i>
   <i type="int" name="NBLK">    32</i>
   <i type="logical" name="LPLANE"> T  </i>
   <i type="logical" name="LSCALAPACK"> F  </i>
   <i type="logical" name="LSCAAWARE"> F  </i>
   <i type="logical" name="LSCALU"> F  </i>
   <i type="logical" name="LASYNC"> F  </i>
  </separator>
  <separator name="miscellaneous" >
   <i type="int" name="IDIOT">     3</i>
   <i type="logical" name="LMUSIC"> F  </i>
   <v name="POMASS">     55.84700000</v>
   <i type="logical" name="LCORR"> T  </i>
  </separator>
  <i type="logical" name="LREAL_COMPAT"> F  </i>
  <i type="logical" name="GGA_COMPAT"> T  </i>
  <i type="logical" name="LBERRY"> F  </i>
  <i type="int" name="ICORELEVEL">     0</i>
  <i type="logical" name="LDAU"> F  </i>
  <i type="int" name="I_CONSTRAINED_M">     0</i>
  <separator name="electronic exchange-correlation" >
   <i type="string" name="GGA">--</i>
   <i type="int" name="VOSKOWN">     0</i>
   <i type="logical" name="LHFCALC"> F  </i>
   <i type="logical" name="LHFONE"> F  </i>
   <i type="logical" name="LRHFCALC"> F  </i>
   <i type="logical" name="LTHOMAS"> F  </i>
   <i type="logical" name="LMODELHF"> F  </i>
   <i name="ENCUTFOCK">      0.00000000</i>
   <i name="ENCUT4O">     -1.00000000</i>
   <i type="int" name="EXXOEP">     0</i>
   <i type="int" name="FOURORBIT">     0</i>
   <i name="AEXX">      0.00000000</i>
   <i name="HFALPHA">      0.00000000</i>
   <i name="ALDAX">      1.00000000</i>
   <i name="AGGAX">      1.00000000</i>
   <i name="ALDAC">      1.00000000</i>
   <i name="AGGAC">      1.00000000</i>
   <i type="int" name="NKREDX">     1</i>
   <i type="int" name="NKREDY">     1</i>
   <i type="int" name="NKREDZ">     1</i>
   <i type="logical" name="SHIFTRED"> F  </i>
   <i type="logical" name="ODDONLY"> F  </i>
   <i type="logical" name="EVENONLY"> F  </i>
   <i type="int" name="LMAXFOCK">     0</i>
   <i type="int" name="NMAXFOCKAE">     0</i>
   <i name="HFSCREEN">      0.00000000</i>
   <i name="HFSCREENC">      0.00000000</i>
  </separator>
  <separator name="model GW" >
   <i type="int" name="MODEL_GW">     0</i>
   <i name="MODEL_EPS0">      9.21543861</i>
   <i name="MODEL_ALPHA">      1.00000000</i>
  </separator>
  <separator name="linear response parameters" >
   <i type="logical" name="LEPSILON"> F  </i>
   <i type="logical" name="LRPA"> F  </i>
   <i type="logical" name="LNABLA"> F  </i>
   <i type="logical" name="LVEL"> F  </i>
   <i type="int" name="KINTER">     0</i>
   <i name="CSHIFT">      0.10000000</i>
   <i name="OMEGAMAX">     -1.00000000</i>
  </separator>
  <separator name="orbital magnetization" >
   <i type="logical" name="ORBITALMAG"> F  </i>
   <i type="logical" name="LMAGBLOCH"> F  </i>
   <i type="logical" name="LCHIMAG"> F  </i>
   <i type="logical" name="LGAUGE"> T  </i>
   <i type="int" name="MAGATOM">     0</i>
   <v name="MAGDIPOL">      0.00000000      0.00000000      0.00000000</v>
   <v name="AVECCONST">      0.00000000      0.00000000      0.00000000</v>
  </separator>
  <separator name="response functions" >
   <i type="logical" name="LRPA"> T  </i>
   <i type="logical" name="LTCTE"> F  </i>
   <i type="logical" name="LTETE"> F  </i>
   <i type="logical" name="L2ORDER"> F  </i>
   <i type="logical" name="LGWLF"> F  </i>
   <i name="ENCUTGW">    223.25583333</i>
   <i name="ENCUTGWSOFT">     -2.00000000</i>
   <i name="ENCUTLF">     -1.00000000</i>
   <i type="int" name="LMAXMP2">    -1</i>
   <i name="SCISSOR">      0.00000000</i>
   <i type="int" name="NOMEGA">     0</i>
   <i type="int" name="NOMEGAR">     0</i>
   <i type="int" name="NBANDSGW">    -1</i>
   <i type="int" name="NBANDSLF">    -1</i>
   <i type="int" name="NELM">     1</i>
   <i type="int" name="DIM">     3</i>
   <i type="int" name="ANTIRES">     0</i>
   <i type="logical" name="LUSEW"> F  </i>
   <i name="OMEGAMAX">    -30.00000000</i>
   <i name="OMEGATL">   -200.00000000</i>
   <i type="int" name="OMEGAGRID">     0</i>
   <i name="CSHIFT">     -0.10000000</i>
   <i type="logical" name="SELFENERGY"> F  </i>
   <i type="logical" name="LSPECTRAL"> F  </i>
   <i type="logical" name="ODDONLYGW"> F  </i>
   <i type="logical" name="EVENONLYGW"> F  </i>
   <i type="int" name="NKREDLFX">     1</i>
   <i type="int" name="NKREDLFY">     1</i>
   <i type="int" name="NKREDLFZ">     1</i>
   <i type="int" name="MAXMEM">  1024</i>
   <i type="int" name="TELESCOPE">     0</i>
  </separator>
 </parameters>
 <atominfo>
  <atoms>       3 </atoms>
  <types>       1 </types>
  <array name="atoms" >
   <dimension dim="1">ion</dimension>
   <field type="string">element</field>
   <field type="int">atomtype</field>
   <set>
    <rc><c>Fe</c><c>   1</c></rc>
    <rc><c>Fe</c><c>   1</c></rc>
    <rc><c>Fe</c><c>   1</c></rc>
   </set>
  </array>
  <array name="atomtypes" >
   <dimension dim="1">type</dimension>
   <field type="int">atomspertype</field>
   <field type="string">element</field>
   <field>mass</field>
   <field>valence</field>
   <field type="string">pseudopotential</field>
   <set>
    <rc><c>   3</c><c>Fe</c><c>     55.84700000</c><c>      8.00000000</c><c> PAW_GGA Fe 03Mar1998                   </c></rc>
   </set>
  </array>
 </atominfo>
 <structure name="initialpos" >
  <crystal>
   <varray name="basis" >
    <v>       3.58505100       0.00000000       0.00000000 </v>
    <v>       0.00000000       3.58505100       0.00000000 </v>
    <v>       0.00000000       0.00000000       3.58505100 </v>
   </varray>
   <i name="volume">     46.07719304 </i>
   <varray name="rec_basis" >
    <v>       0.27893606       0.00000000       0.00000000 </v>
    <v>       0.00000000       0.27893606       0.00000000 </v>
    <v>       0.00000000       0.00000000       0.27893606 </v>
   </varray>
  </crystal>
  <varray name="positions" >
   <v>       0.00000000       0.25000000       0.25000000 </v>
   <v>       0.50000000       0.00000000       0.50000000 </v>
   <v>       0.50000000       0.50000000       0.00000000 </v>
  </varray>
 </structure>
 <calculation>
  <scstep>
   <time name="dav">    1.86    0.48</time>
   <time name="total">    2.61    1.05</time>
   <energy>
    <i name="alphaZ">    134.15010455 </i>
    <i name="ewald">  -1516.62787332 </i>
    <i name="hartreedc">   -478.71812717 </i>
    <i name="XCdc">      9.29660387 </i>
    <i name="pawpsdc">   1438.89509626 </i>
    <i name="pawaedc">  -1462.21758594 </i>
    <i name="eentropy">     -0.03656951 </i>
    <i name="bandstr">    211.27133676 </i>
    <i name="atom">   1786.61487174 </i>
    <i name="e_fr_energy">    122.62785725 </i>
    <i name="e_wo_entrp">    122.66442675 </i>
    <i name="e_0_energy">    122.64004708 </i>
   </energy>
  </scstep>
  <scstep>
   <time name="dav">    1.17    0.29</time>
   <time name="total">    1.18    0.30</time>
   <energy>
    <i name="e_fr_energy">    -14.96324158 </i>
    <i name="e_wo_entrp">    -14.98895601 </i>
    <i name="e_0_energy">    -14.97181306 </i>
   </energy>
  </scstep>
  <scstep>
   <time name="dav">    1.58    0.39</time>
   <time name="total">    1.59    0.40</time>
   <energy>
    <i name="e_fr_energy">    -23.26527571 </i>
    <i name="e_wo_entrp">    -23.21919859 </i>
    <i name="e_0_energy">    -23.24991667 </i>
   </energy>
  </scstep>
  <scstep>
   <time name="dav">    1.20    0.30</time>
   <time name="total">    1.21    0.30</time>
   <energy>
    <i name="e_fr_energy">    -23.43263377 </i>
    <i name="e_wo_entrp">    -23.38646110 </i>
    <i name="e_0_energy">    -23.41724288 </i>
   </energy>
  </scstep>
  <scstep>
   <time name="dav">    1.08    0.27</time>
   <time name="total">    1.26    0.34</time>
   <energy>
    <i name="e_fr_energy">    -23.43471239 </i>
    <i name="e_wo_entrp">    -23.38854823 </i>
    <i name="e_0_energy">    -23.41932433 </i>
   </energy>
  </scstep>
  <scstep>
   <time name="dav">    1.31    0.34</time>
   <time name="total">    1.77    0.69</time>
   <energy>
    <i name="e_fr_energy">    -22.86300098 </i>
    <i name="e_wo_entrp">    -22.84577940 </i>
    <i name="e_0_energy">    -22.85726045 </i>
   </energy>
  </scstep>
  <scstep>
   <time name="dav">    1.39    0.36</time>
   <time name="total">    1.86    0.71</time>
   <energy>
    <i name="e_fr_energy">    -28.45367180 </i>
    <i name="e_wo_entrp">    -28.42182702 </i>
    <i name="e_0_energy">    -28.44305687 </i>
   </energy>
  </scstep>
  <scstep>
   <time name="dav">    1.39    0.36</time>
   <time name="total">    1.89    0.72</time>
   <energy>
    <i name="e_fr_energy">    -20.58877012 </i>
    <i name="e_wo_entrp">    -20.55014617 </i>
    <i name="e_0_energy">    -20.57589547 </i>
   </energy>
  </scstep>
  <scstep>
   <time name="dav">    1.13    0.29</time>
   <time name="total">    1.67    0.65</time>
   <energy>
    <i name="e_fr_energy">    -20.52009215 </i>
    <i name="e_wo_entrp">    -20.47178839 </i>
    <i name="e_0_energy">    -20.50399090 </i>
   </energy>
  </scstep>
  <scstep>
   <time name="dav">    1.30    0.33</time>
   <time name="total">    1.88    0.69</time>
   <energy>
    <i name="e_fr_energy">    -20.50280952 </i>
    <i name="e_wo_entrp">    -20.46089174 </i>
    <i name="e_0_energy">    -20.48883693 </i>
   </energy>
  </scstep>
  <scstep>
   <time name="dav">    1.30    0.33</time>
   <time name="total">    1.88    0.69</time>
   <energy>
    <i name="e_fr_energy">    -20.50244630 </i>
    <i name="e_wo_entrp">    -20.45805109 </i>
    <i name="e_0_energy">    -20.48764790 </i>
   </energy>
  </scstep>
  <scstep>
   <time name="dav">    1.13    0.29</time>
   <time name="total">    1.71    0.65</time>
   <energy>
    <i name="e_fr_energy">    -20.50245975 </i>
    <i name="e_wo_entrp">    -20.45870118 </i>
    <i name="e_0_energy">    -20.48787356 </i>
   </energy>
  </scstep>
  <scstep>
   <time name="dav">    0.63    0.17</time>
   <time name="total">    1.02    0.45</time>
   <energy>
    <i name="alphaZ">    134.15010455 </i>
    <i name="ewald">  -1516.62787332 </i>
    <i name="hartreedc">   -440.10054915 </i>
    <i name="XCdc">      7.48612258 </i>
    <i name="pawpsdc">   1534.44261383 </i>
    <i name="pawaedc">  -1559.21197556 </i>
    <i name="eentropy">     -0.04427150 </i>
    <i name="bandstr">     32.78852454 </i>
    <i name="atom">   1786.61487174 </i>
    <i name="e_fr_energy">    -20.50243230 </i>
    <i name="e_wo_entrp">    -20.45816080 </i>
    <i name="e_0_energy">    -20.48767513 </i>
   </energy>
  </scstep>
  <structure>
   <crystal>
    <varray name="basis" >
     <v>       3.58505100       0.00000000       0.00000000 </v>
     <v>       0.00000000       3.58505100       0.00000000 </v>
     <v>       0.00000000       0.00000000       3.58505100 </v>
    </varray>
    <i name="volume">     46.07719304 </i>
    <varray name="rec_basis" >
     <v>       0.27893606       0.00000000       0.00000000 </v>
     <v>       0.00000000       0.27893606       0.00000000 </v>
     <v>       0.00000000       0.00000000       0.27893606 </v>
    </varray>
   </crystal>
   <varray name="positions" >
    <v>       0.00000000       0.25000000       0.25000000 </v>
    <v>       0.50000000       0.00000000       0.50000000 </v>
    <v>       0.50000000       0.50000000       0.00000000 </v>
   </varray>
  </structure>
  <varray name="forces" >
   <v>       0.00000000       0.00000000       0.00000000 </v>
   <v>       0.00000000      -1.42891839       1.42891839 </v>
   <v>       0.00000000       1.42891839      -1.42891839 </v>
  </varray>
  <varray name="stress" >
   <v>    -115.54195990       0.00000000       0.00000000 </v>
   <v>       0.00000000    -209.10271881    -118.27905620 </v>
   <v>       0.00000000    -118.27905620    -209.10271881 </v>
  </varray>
  <energy>
   <i name="e_fr_energy">    -20.50243230 </i>
   <i name="e_wo_entrp">    -20.48767513 </i>
   <i name="e_0_energy">     -0.04427150 </i>
  </energy>
  <time name="totalsc">   23.29    8.89</time>
 </calculation>
 <calculation>
  <scstep>
   <time name="dav">    1.00    0.26</time>
   <time name="total">    1.69    0.62</time>
   <energy>
    <i name="alphaZ">    134.15010455 </i>
    <i name="ewald">  -1533.81057684 </i>
    <i name="hartreedc">   -425.47198034 </i>
    <i name="XCdc">      7.39981197 </i>
    <i name="pawpsdc">   1534.72089693 </i>
    <i name="pawaedc">  -1559.49422234 </i>
    <i name="eentropy">     -0.00933714 </i>
    <i name="bandstr">     35.11628612 </i>
    <i name="atom">   1786.61487174 </i>
    <i name="e_fr_energy">    -20.78414533 </i>
    <i name="e_wo_entrp">    -20.77480820 </i>
    <i name="e_0_energy">    -20.78103295 </i>
   </energy>
  </scstep>
  <scstep>
   <time name="dav">    1.18    0.31</time>
   <time name="total">    1.71    0.67</time>
   <energy>
    <i name="e_fr_energy">    -20.86680281 </i>
    <i name="e_wo_entrp">    -20.85316458 </i>
    <i name="e_0_energy">    -20.86225673 </i>
   </energy>
  </scstep>
  <scstep>
   <time name="dav">    1.46    0.37</time>
   <time name="total">    1.99    0.74</time>
   <energy>
    <i name="e_fr_energy">    -20.94866817 </i>
    <i name="e_wo_entrp">    -20.91928747 </i>
    <i name="e_0_energy">    -20.93887460 </i>
   </energy>
  </scstep>
  <scstep>
   <time name="dav">    1.55    0.40</time>
   <time name="total">    2.15    0.76</time>
   <energy>
    <i name="e_fr_energy">    -20.85731281 </i>
    <i name="e_wo_entrp">    -20.84146556 </i>
    <i name="e_0_energy">    -20.85203039 </i>
   </energy>
  </scstep>
  <scstep>
   <time name="dav">    1.36    0.35</time>
   <time name="total">    2.00    0.78</time>
   <energy>
    <i name="e_fr_energy">    -20.84869021 </i>
    <i name="e_wo_entrp">    -20.82708658 </i>
    <i name="e_0_energy">    -20.84148900 </i>
   </energy>
  </scstep>
  <scstep>
   <time name="dav">    1.27    0.32</time>
   <time name="total">    1.97    0.69</time>
   <energy>
    <i name="e_fr_energy">    -20.84742725 </i>
    <i name="e_wo_entrp">    -20.82976806 </i>
    <i name="e_0_energy">    -20.84154085 </i>
   </energy>
  </scstep>
  <scstep>
   <time name="dav">    0.83    0.22</time>
   <time name="total">    1.28    0.51</time>
   <energy>
    <i name="alphaZ">    134.15010455 </i>
    <i name="ewald">  -1533.81057684 </i>
    <i name="hartreedc">   -424.87884801 </i>
    <i name="XCdc">      7.34256117 </i>
    <i name="pawpsdc">   1518.51237383 </i>
    <i name="pawaedc">  -1542.78025272 </i>
    <i name="eentropy">     -0.01933531 </i>
    <i name="bandstr">     34.02170400 </i>
    <i name="atom">   1786.61487174 </i>
    <i name="e_fr_energy">    -20.84739760 </i>
    <i name="e_wo_entrp">    -20.82806229 </i>
    <i name="e_0_energy">    -20.84095250 </i>
   </energy>
  </scstep>
  <structure>
   <crystal>
    <varray name="basis" >
     <v>       3.58505100       0.00000000       0.00000000 </v>
     <v>       0.00000000       3.58505100       0.00000000 </v>
     <v>       0.00000000       0.00000000       3.58505100 </v>
    </varray>
    <i name="volume">     46.07719304 </i>
    <varray name="rec_basis" >
     <v>       0.27893606       0.00000000       0.00000000 </v>
     <v>       0.00000000       0.27893606       0.00000000 </v>
     <v>       0.00000000       0.00000000       0.27893606 </v>
    </varray>
   </crystal>
   <varray name="positions" >
    <v>       0.00000000       0.25000000       0.25000000 </v>
    <v>       0.50000000      -0.01922841       0.51922841 </v>
    <v>       0.50000000       0.51922841      -0.01922841 </v>
   </varray>
  </structure>
  <varray name="forces" >
   <v>       0.00000000       0.00000000       0.00000000 </v>
   <v>       0.00000000      -1.15311445       1.15311445 </v>
   <v>       0.00000000       1.15311445      -1.15311445 </v>
  </varray>
  <varray name="stress" >
   <v>    -169.41814361       0.00000000       0.00000000 </v>
   <v>       0.00000000    -269.26290865     -46.53814941 </v>
   <v>       0.00000000     -46.53814941    -269.26290865 </v>
  </varray>
  <energy>
   <i name="e_fr_energy">    -20.84739760 </i>
   <i name="e_wo_entrp">    -20.84095250 </i>
   <i name="e_0_energy">     -0.01933531 </i>
  </energy>
  <time name="totalsc">   14.71    6.06</time>
 </calculation>
 <calculation>
  <scstep>
   <time name="dav">    1.01    0.26</time>
   <time name="total">    1.54    0.62</time>
   <energy>
    <i name="alphaZ">    134.15010455 </i>
    <i name="ewald">  -1491.42853984 </i>
    <i name="hartreedc">   -452.89249707 </i>
    <i name="XCdc">      7.97515791 </i>
    <i name="pawpsdc">   1518.44159901 </i>
    <i name="pawaedc">  -1542.71209417 </i>
    <i name="eentropy">     -0.01019672 </i>
    <i name="bandstr">     34.12280532 </i>
    <i name="atom">   1786.61487174 </i>
    <i name="e_fr_energy">     -5.73878928 </i>
    <i name="e_wo_entrp">     -5.72859256 </i>
    <i name="e_0_energy">     -5.73539037 </i>
   </energy>
  </scstep>
  <scstep>
   <time name="dav">    1.01    0.26</time>
   <time name="total">    1.54    0.62</time>
   <energy>
    <i name="e_fr_energy">    -21.85998087 </i>
    <i name="e_wo_entrp">    -21.83292736 </i>
    <i name="e_0_energy">    -21.85096303 </i>
   </energy>
  </scstep>
  <scstep>
   <time name="dav">    1.55    0.40</time>
   <time name="total">    2.08    0.76</time>
   <energy>
    <i name="e_fr_energy">    -21.42904697 </i>
    <i name="e_wo_entrp">    -21.47353264 </i>
    <i name="e_0_energy">    -21.44387553 </i>
   </energy>
  </scstep>
  <scstep>
   <time name="dav">    1.36    0.35</time>
   <time name="total">    1.96    0.81</time>
   <energy>
    <i name="e_fr_energy">    -18.56674758 </i>
    <i name="e_wo_entrp">    -18.51007458 </i>
    <i name="e_0_energy">    -18.54785658 </i>
   </energy>
  </scstep>
  <scstep>
   <time name="dav">    1.27    0.32</time>
   <time name="total">    1.90    0.69</time>
   <energy>
    <i name="e_fr_energy">    -18.27005528 </i>
    <i name="e_wo_entrp">    -18.18814143 </i>
    <i name="e_0_energy">    -18.24275066 </i>
   </energy>
  </scstep>
  <scstep>
   <time name="dav">    1.36    0.35</time>
   <time name="total">    2.06    0.71</time>
   <energy>
    <i name="e_fr_energy">    -18.24934970 </i>
    <i name="e_wo_entrp">    -18.17370022 </i>
    <i name="e_0_energy">    -18.22413321 </i>
   </energy>
  </scstep>
  <scstep>
   <time name="dav">    1.36    0.35</time>
   <time name="total">    2.05    0.71</time>
   <energy>
    <i name="e_fr_energy">    -18.28913734 </i>
    <i name="e_wo_entrp">    -18.21975131 </i>
    <i name="e_0_energy">    -18.26600866 </i>
   </energy>
  </scstep>
  <scstep>
   <time name="dav">    1.55    0.40</time>
   <time name="total">    2.26    0.82</time>
   <energy>
    <i name="e_fr_energy">    -18.25681405 </i>
    <i name="e_wo_entrp">    -18.18901421 </i>
    <i name="e_0_energy">    -18.23421410 </i>
   </energy>
  </scstep>
  <scstep>
   <time name="dav">    1.73    0.44</time>
   <time name="total">    2.43    0.80</time>
   <energy>
    <i name="e_fr_energy">    -18.24394033 </i>
    <i name="e_wo_entrp">    -18.16478552 </i>
    <i name="e_0_energy">    -18.21755539 </i>
   </energy>
  </scstep>
  <scstep>
   <time name="dav">    0.92    0.24</time>
   <time name="total">    1.61    0.60</time>
   <energy>
    <i name="e_fr_energy">    -18.24383753 </i>
    <i name="e_wo_entrp">    -18.16447430 </i>
    <i name="e_0_energy">    -18.21738312 </i>
   </energy>
  </scstep>
  <scstep>
   <time name="dav">    0.66    0.17</time>
   <time name="total">    1.12    0.47</time>
   <energy>
    <i name="alphaZ">    134.15010455 </i>
    <i name="ewald">  -1491.42853984 </i>
    <i name="hartreedc">   -454.98226536 </i>
    <i name="XCdc">      7.96823099 </i>
    <i name="pawpsdc">   1597.90582168 </i>
    <i name="pawaedc">  -1622.49883594 </i>
    <i name="eentropy">     -0.07990947 </i>
    <i name="bandstr">     24.10667609 </i>
    <i name="atom">   1786.61487174 </i>
    <i name="e_fr_energy">    -18.24384558 </i>
    <i name="e_wo_entrp">    -18.16393610 </i>
    <i name="e_0_energy">    -18.21720908 </i>
   </energy>
  </scstep>
  <structure>
   <crystal>
    <varray name="basis" >
     <v>       3.58505100       0.00000000       0.00000000 </v>
     <v>       0.00000000       3.58505100       0.00000000 </v>
     <v>       0.00000000       0.00000000       3.58505100 </v>
    </varray>
    <i name="volume">     46.07719304 </i>
    <varray name="rec_basis" >
     <v>       0.27893606       0.00000000       0.00000000 </v>
     <v>       0.00000000       0.27893606       0.00000000 </v>
     <v>       0.00000000       0.00000000       0.27893606 </v>
    </varray>
   </crystal>
   <varray name="positions" >
    <v>       0.00000000       0.25000000       0.25000000 </v>
    <v>       0.50000000      -0.09962085       0.59962085 </v>
    <v>       0.50000000       0.59962085      -0.09962085 </v>
   </varray>
  </structure>
  <varray name="forces" >
   <v>       0.00000000       0.00000000       0.00000000 </v>
   <v>       0.00000000       9.20622699      -9.20622699 </v>
   <v>       0.00000000      -9.20622699       9.20622699 </v>
  </varray>
  <varray name="stress" >
   <v>    -263.74140335       0.00000000       0.00000000 </v>
   <v>       0.00000000      40.95761712    -357.28488720 </v>
   <v>       0.00000000    -357.28488720      40.95761712 </v>
  </varray>
  <energy>
   <i name="e_fr_energy">    -18.24384558 </i>
   <i name="e_wo_entrp">    -18.21720908 </i>
   <i name="e_0_energy">     -0.07990947 </i>
  </energy>
  <time name="totalsc">   22.68    8.96</time>
 </calculation>
 <calculation>
  <scstep>
   <time name="dav">    1.00    0.26</time>
   <time name="total">    1.69    0.62</time>
   <energy>
    <i name="alphaZ">    134.15010455 </i>
    <i name="ewald">  -1539.02341504 </i>
    <i name="hartreedc">   -429.73691659 </i>
    <i name="XCdc">      7.84434857 </i>
    <i name="pawpsdc">   1597.82864135 </i>
    <i name="pawaedc">  -1622.41492519 </i>
    <i name="eentropy">     -0.02214348 </i>
    <i name="bandstr">     52.16182481 </i>
    <i name="atom">   1786.61487174 </i>
    <i name="e_fr_energy">    -12.59760928 </i>
    <i name="e_wo_entrp">    -12.57546580 </i>
    <i name="e_0_energy">    -12.59022812 </i>
   </energy>
  </scstep>
  <scstep>
   <time name="dav">    1.55    0.40</time>
   <time name="total">    2.08    0.76</time>
   <energy>
    <i name="e_fr_energy">    -60.20980278 </i>
    <i name="e_wo_entrp">    -60.23521742 </i>
    <i name="e_0_energy">    -60.21827433 </i>
   </energy>
  </scstep>
  <scstep>
   <time name="dav">    1.55    0.40</time>
   <time name="total">    2.08    0.76</time>
   <energy>
    <i name="e_fr_energy">    -23.10543676 </i>
    <i name="e_wo_entrp">    -23.12732756 </i>
    <i name="e_0_energy">    -23.11273369 </i>
   </energy>
  </scstep>
  <scstep>
   <time name="dav">    1.46    0.37</time>
   <time name="total">    2.05    0.74</time>
   <energy>
    <i name="e_fr_energy">    -21.79445298 </i>
    <i name="e_wo_entrp">    -21.79101420 </i>
    <i name="e_0_energy">    -21.79330672 </i>
   </energy>
  </scstep>
  <scstep>
   <time name="dav">    1.35    0.35</time>
   <time name="total">    1.99    0.71</time>
   <energy>
    <i name="e_fr_energy">    -21.97790331 </i>
    <i name="e_wo_entrp">    -21.95651840 </i>
    <i name="e_0_energy">    -21.97077501 </i>
   </energy>
  </scstep>
  <scstep>
   <time name="dav">    1.36    0.35</time>
   <time name="total">    2.05    0.71</time>
   <energy>
    <i name="e_fr_energy">    -21.02092591 </i>
    <i name="e_wo_entrp">    -21.04896770 </i>
    <i name="e_0_energy">    -21.03027317 </i>
   </energy>
  </scstep>
  <scstep>
   <time name="dav">    1.00    0.26</time>
   <time name="total">    1.70    0.62</time>
   <energy>
    <i name="e_fr_energy">    -21.00006046 </i>
    <i name="e_wo_entrp">    -21.01207131 </i>
    <i name="e_0_energy">    -21.00406407 </i>
   </energy>
  </scstep>
  <scstep>
   <time name="dav">    1.36    0.35</time>
   <time name="total">    2.06    0.71</time>
   <energy>
    <i name="e_fr_energy">    -20.99525171 </i>
    <i name="e_wo_entrp">    -21.00525135 </i>
    <i name="e_0_energy">    -20.99858492 </i>
   </energy>
  </scstep>
  <scstep>
   <time name="dav">    1.27    0.32</time>
   <time name="total">    1.97    0.69</time>
   <energy>
    <i name="e_fr_energy">    -20.98021127 </i>
    <i name="e_wo_entrp">    -20.97379438 </i>
    <i name="e_0_energy">    -20.97807231 </i>
   </energy>
  </scstep>
  <scstep>
   <time name="dav">    1.18    0.30</time>
   <time name="total">    1.88    0.67</time>
   <energy>
    <i name="e_fr_energy">    -20.97971183 </i>
    <i name="e_wo_entrp">    -20.97999278 </i>
    <i name="e_0_energy">    -20.97980548 </i>
   </energy>
  </scstep>
  <scstep>
   <time name="dav">    1.36    0.35</time>
   <time name="total">    2.06    0.71</time>
   <energy>
    <i name="e_fr_energy">    -20.97803827 </i>
    <i name="e_wo_entrp">    -20.97655204 </i>
    <i name="e_0_energy">    -20.97754286 </i>
   </energy>
  </scstep>
  <scstep>
   <time name="dav">    1.18    0.30</time>
   <time name="total">    1.88    0.67</time>
   <energy>
    <i name="e_fr_energy">    -20.97718964 </i>
    <i name="e_wo_entrp">    -20.97748907 </i>
    <i name="e_0_energy">    -20.97728945 </i>
   </energy>
  </scstep>
  <scstep>
   <time name="dav">    1.01    0.26</time>
   <time name="total">    1.71    0.62</time>
   <energy>
    <i name="e_fr_energy">    -20.97687704 </i>
    <i name="e_wo_entrp">    -20.97731187 </i>
    <i name="e_0_energy">    -20.97702198 </i>
   </energy>
  </scstep>
  <scstep>
   <time name="dav">    0.66    0.17</time>
   <time name="total">    1.11    0.46</time>
   <energy>
    <i name="alphaZ">    134.15010455 </i>
    <i name="ewald">  -1539.02341504 </i>
    <i name="hartreedc">   -420.34844326 </i>
    <i name="XCdc">      7.30905688 </i>
    <i name="pawpsdc">   1514.80345956 </i>
    <i name="pawaedc">  -1538.91164337 </i>
    <i name="eentropy">      0.00082603 </i>
    <i name="bandstr">     34.42837881 </i>
    <i name="atom">   1786.61487174 </i>
    <i name="e_fr_energy">    -20.97680410 </i>
    <i name="e_wo_entrp">    -20.97763013 </i>
    <i name="e_0_energy">    -20.97707944 </i>
   </energy>
  </scstep>
  <structure>
   <crystal>
    <varray name="basis" >
     <v>       3.58505100       0.00000000       0.00000000 </v>
     <v>       0.00000000       3.58505100       0.00000000 </v>
     <v>       0.00000000       0.00000000       3.58505100 </v>
    </varray>
    <i name="volume">     46.07719304 </i>
    <varray name="rec_basis" >
     <v>       0.27893606       0.00000000       0.00000000 </v>
     <v>       0.00000000       0.27893606       0.00000000 </v>
     <v>       0.00000000       0.00000000       0.27893606 </v>
    </varray>
   </crystal>
   <varray name="positions" >
    <v>       0.00000000       0.25000000       0.25000000 </v>
    <v>       0.50000000      -0.02817701       0.52817701 </v>
    <v>       0.50000000       0.52817701      -0.02817701 </v>
   </varray>
  </structure>
  <varray name="forces" >
   <v>       0.00000000       0.00000000       0.00000000 </v>
   <v>       0.00000000      -0.81028422       0.81028422 </v>
   <v>       0.00000000       0.81028422      -0.81028422 </v>
  </varray>
  <varray name="stress" >
   <v>    -209.92765986       0.00000000       0.00000000 </v>
   <v>       0.00000000    -302.92753904     -48.10335005 </v>
   <v>       0.00000000     -48.10335005    -302.92753904 </v>
  </varray>
  <energy>
   <i name="e_fr_energy">    -20.97680410 </i>
   <i name="e_wo_entrp">    -20.97707944 </i>
   <i name="e_0_energy">      0.00082603 </i>
  </energy>
  <time name="totalsc">   28.27   10.72</time>
 </calculation>
 <calculation>
  <scstep>
   <time name="dav">    1.00    0.26</time>
   <time name="total">    1.69    0.62</time>
   <energy>
    <i name="alphaZ">    134.15010455 </i>
    <i name="ewald">  -1541.37742733 </i>
    <i name="hartreedc">   -418.12232325 </i>
    <i name="XCdc">      7.29420994 </i>
    <i name="pawpsdc">   1514.72849440 </i>
    <i name="pawaedc">  -1538.82699369 </i>
    <i name="eentropy">      0.00379203 </i>
    <i name="bandstr">     34.50953335 </i>
    <i name="atom">   1786.61487174 </i>
    <i name="e_fr_energy">    -21.02573826 </i>
    <i name="e_wo_entrp">    -21.02953028 </i>
    <i name="e_0_energy">    -21.02700227 </i>
   </energy>
  </scstep>
  <scstep>
   <time name="dav">    1.45    0.37</time>
   <time name="total">    1.98    0.73</time>
   <energy>
    <i name="e_fr_energy">    -21.41036098 </i>
    <i name="e_wo_entrp">    -21.44938532 </i>
    <i name="e_0_energy">    -21.42336909 </i>
   </energy>
  </scstep>
  <scstep>
   <time name="dav">    1.64    0.42</time>
   <time name="total">    2.17    0.78</time>
   <energy>
    <i name="e_fr_energy">    -21.04220671 </i>
    <i name="e_wo_entrp">    -21.04387646 </i>
    <i name="e_0_energy">    -21.04276329 </i>
   </energy>
  </scstep>
  <scstep>
   <time name="dav">    1.36    0.35</time>
   <time name="total">    1.95    0.72</time>
   <energy>
    <i name="e_fr_energy">    -21.03022928 </i>
    <i name="e_wo_entrp">    -21.04008583 </i>
    <i name="e_0_energy">    -21.03351480 </i>
   </energy>
  </scstep>
  <scstep>
   <time name="dav">    1.27    0.32</time>
   <time name="total">    1.90    0.69</time>
   <energy>
    <i name="e_fr_energy">    -21.02801840 </i>
    <i name="e_wo_entrp">    -21.03262213 </i>
    <i name="e_0_energy">    -21.02955298 </i>
   </energy>
  </scstep>
  <scstep>
   <time name="dav">    1.00    0.26</time>
   <time name="total">    1.70    0.62</time>
   <energy>
    <i name="e_fr_energy">    -21.02774055 </i>
    <i name="e_wo_entrp">    -21.03464050 </i>
    <i name="e_0_energy">    -21.03004053 </i>
   </energy>
  </scstep>
  <scstep>
   <time name="dav">    0.67    0.18</time>
   <time name="total">    1.12    0.53</time>
   <energy>
    <i name="alphaZ">    134.15010455 </i>
    <i name="ewald">  -1541.37742733 </i>
    <i name="hartreedc">   -418.09435979 </i>
    <i name="XCdc">      7.29041979 </i>
    <i name="pawpsdc">   1513.41190303 </i>
    <i name="pawaedc">  -1537.38870126 </i>
    <i name="eentropy">      0.00580157 </i>
    <i name="bandstr">     34.35972794 </i>
    <i name="atom">   1786.61487174 </i>
    <i name="e_fr_energy">    -21.02765978 </i>
    <i name="e_wo_entrp">    -21.03346135 </i>
    <i name="e_0_energy">    -21.02959364 </i>
   </energy>
  </scstep>
  <structure>
   <crystal>
    <varray name="basis" >
     <v>       3.58505100       0.00000000       0.00000000 </v>
     <v>       0.00000000       3.58505100       0.00000000 </v>
     <v>       0.00000000       0.00000000       3.58505100 </v>
    </varray>
    <i name="volume">     46.07719304 </i>
    <varray name="rec_basis" >
     <v>       0.27893606       0.00000000       0.00000000 </v>
     <v>       0.00000000       0.27893606       0.00000000 </v>
     <v>       0.00000000       0.00000000       0.27893606 </v>
    </varray>
   </crystal>
   <varray name="positions" >
    <v>       0.00000000       0.25000000       0.25000000 </v>
    <v>       0.50000000      -0.03395645       0.53395645 </v>
    <v>       0.50000000       0.53395645      -0.03395645 </v>
   </varray>
  </structure>
  <varray name="forces" >
   <v>       0.00000000       0.00000000       0.00000000 </v>
   <v>       0.00000000      -0.41590181       0.41590181 </v>
   <v>       0.00000000       0.41590181      -0.41590181 </v>
  </varray>
  <varray name="stress" >
   <v>    -208.72222884       0.00000000       0.00000000 </v>
   <v>       0.00000000    -287.97730623     -53.95654502 </v>
   <v>       0.00000000     -53.95654502    -287.97730623 </v>
  </varray>
  <energy>
   <i name="e_fr_energy">    -21.02765978 </i>
   <i name="e_wo_entrp">    -21.02959364 </i>
   <i name="e_0_energy">      0.00580157 </i>
  </energy>
  <time name="totalsc">   14.48    5.96</time>
 </calculation>
 <calculation>
  <scstep>
   <time name="dav">    1.00    0.26</time>
   <time name="total">    1.69    0.62</time>
   <energy>
    <i name="alphaZ">    134.15010455 </i>
    <i name="ewald">  -1542.94521336 </i>
    <i name="hartreedc">   -416.50434655 </i>
    <i name="XCdc">      7.28250219 </i>
    <i name="pawpsdc">   1513.41891334 </i>
    <i name="pawaedc">  -1537.39448037 </i>
    <i name="eentropy">      0.00239114 </i>
    <i name="bandstr">     34.33497183 </i>
    <i name="atom">   1786.61487174 </i>
    <i name="e_fr_energy">    -21.04028551 </i>
    <i name="e_wo_entrp">    -21.04267665 </i>
    <i name="e_0_energy">    -21.04108256 </i>
   </energy>
  </scstep>
  <scstep>
   <time name="dav">    1.45    0.37</time>
   <time name="total">    1.98    0.73</time>
   <energy>
    <i name="e_fr_energy">    -21.39435787 </i>
    <i name="e_wo_entrp">    -21.42410832 </i>
    <i name="e_0_energy">    -21.40427468 </i>
   </energy>
  </scstep>
  <scstep>
   <time name="dav">    1.73    0.44</time>
   <time name="total">    2.26    0.86</time>
   <energy>
    <i name="e_fr_energy">    -21.05647152 </i>
    <i name="e_wo_entrp">    -21.05606351 </i>
    <i name="e_0_energy">    -21.05633552 </i>
   </energy>
  </scstep>
  <scstep>
   <time name="dav">    1.36    0.35</time>
   <time name="total">    1.95    0.71</time>
   <energy>
    <i name="e_fr_energy">    -21.04634119 </i>
    <i name="e_wo_entrp">    -21.05697473 </i>
    <i name="e_0_energy">    -21.04988570 </i>
   </energy>
  </scstep>
  <scstep>
   <time name="dav">    1.38    0.35</time>
   <time name="total">    2.01    0.72</time>
   <energy>
    <i name="e_fr_energy">    -21.04380988 </i>
    <i name="e_wo_entrp">    -21.04803484 </i>
    <i name="e_0_energy">    -21.04521820 </i>
   </energy>
  </scstep>
  <scstep>
   <time name="dav">    1.00    0.26</time>
   <time name="total">    1.70    0.62</time>
   <energy>
    <i name="e_fr_energy">    -21.04358480 </i>
    <i name="e_wo_entrp">    -21.05034793 </i>
    <i name="e_0_energy">    -21.04583918 </i>
   </energy>
  </scstep>
  <scstep>
   <time name="dav">    0.65    0.17</time>
   <time name="total">    1.35    0.53</time>
   <energy>
    <i name="e_fr_energy">    -21.04346819 </i>
    <i name="e_wo_entrp">    -21.04892556 </i>
    <i name="e_0_energy">    -21.04528731 </i>
   </energy>
  </scstep>
  <scstep>
   <time name="dav">    0.66    0.17</time>
   <time name="total">    1.12    0.47</time>
   <energy>
    <i name="alphaZ">    134.15010455 </i>
    <i name="ewald">  -1542.94521336 </i>
    <i name="hartreedc">   -416.63833217 </i>
    <i name="XCdc">      7.28788710 </i>
    <i name="pawpsdc">   1513.50173265 </i>
    <i name="pawaedc">  -1537.41362646 </i>
    <i name="eentropy">      0.00585836 </i>
    <i name="bandstr">     34.39324897 </i>
    <i name="atom">   1786.61487174 </i>
    <i name="e_fr_energy">    -21.04346862 </i>
    <i name="e_wo_entrp">    -21.04932698 </i>
    <i name="e_0_energy">    -21.04542141 </i>
   </energy>
  </scstep>
  <structure>
   <crystal>
    <varray name="basis" >
     <v>       3.58505100       0.00000000       0.00000000 </v>
     <v>       0.00000000       3.58505100       0.00000000 </v>
     <v>       0.00000000       0.00000000       3.58505100 </v>
    </varray>
    <i name="volume">     46.07719304 </i>
    <varray name="rec_basis" >
     <v>       0.27893606       0.00000000       0.00000000 </v>
     <v>       0.00000000       0.27893606       0.00000000 </v>
     <v>       0.00000000       0.00000000       0.27893606 </v>
    </varray>
   </crystal>
   <varray name="positions" >
    <v>       0.00000000       0.25000000       0.25000000 </v>
    <v>       0.50000000      -0.04005124       0.54005124 </v>
    <v>       0.50000000       0.54005124      -0.04005124 </v>
   </varray>
  </structure>
  <varray name="forces" >
   <v>       0.00000000       0.00000000       0.00000000 </v>
   <v>       0.00000000       0.06036601      -0.06036601 </v>
   <v>       0.00000000      -0.06036601       0.06036601 </v>
  </varray>
  <varray name="stress" >
   <v>    -223.87411651       0.00000000       0.00000000 </v>
   <v>       0.00000000    -288.88444176     -66.34069483 </v>
   <v>       0.00000000     -66.34069483    -288.88444176 </v>
  </varray>
  <energy>
   <i name="e_fr_energy">    -21.04346862 </i>
   <i name="e_wo_entrp">    -21.04542141 </i>
   <i name="e_0_energy">      0.00585836 </i>
  </energy>
  <time name="totalsc">   16.02    6.52</time>
 </calculation>
 <calculation>
  <scstep>
   <time name="dav">    1.00    0.26</time>
   <time name="total">    1.69    0.62</time>
   <energy>
    <i name="alphaZ">    134.15010455 </i>
    <i name="ewald">  -1542.80033997 </i>
    <i name="hartreedc">   -416.79796878 </i>
    <i name="XCdc">      7.28872625 </i>
    <i name="pawpsdc">   1513.49971221 </i>
    <i name="pawaedc">  -1537.40942879 </i>
    <i name="eentropy">      0.00664229 </i>
    <i name="bandstr">     34.40389177 </i>
    <i name="atom">   1786.61487174 </i>
    <i name="e_fr_energy">    -21.04378874 </i>
    <i name="e_wo_entrp">    -21.05043102 </i>
    <i name="e_0_energy">    -21.04600283 </i>
   </energy>
  </scstep>
  <scstep>
   <time name="dav">    1.46    0.37</time>
   <time name="total">    1.98    0.73</time>
   <energy>
    <i name="e_fr_energy">    -21.05683480 </i>
    <i name="e_wo_entrp">    -21.05776471 </i>
    <i name="e_0_energy">    -21.05714477 </i>
   </energy>
  </scstep>
  <scstep>
   <time name="dav">    1.64    0.42</time>
   <time name="total">    2.17    0.78</time>
   <energy>
    <i name="e_fr_energy">    -21.04488170 </i>
    <i name="e_wo_entrp">    -21.05383092 </i>
    <i name="e_0_energy">    -21.04786477 </i>
   </energy>
  </scstep>
  <scstep>
   <time name="dav">    1.36    0.35</time>
   <time name="total">    1.96    0.71</time>
   <energy>
    <i name="e_fr_energy">    -21.04397001 </i>
    <i name="e_wo_entrp">    -21.04862992 </i>
    <i name="e_0_energy">    -21.04552332 </i>
   </energy>
  </scstep>
  <scstep>
   <time name="dav">    0.66    0.17</time>
   <time name="total">    1.29    0.54</time>
   <energy>
    <i name="e_fr_energy">    -21.04380074 </i>
    <i name="e_wo_entrp">    -21.05020565 </i>
    <i name="e_0_energy">    -21.04593571 </i>
   </energy>
  </scstep>
  <scstep>
   <time name="dav">    0.66    0.17</time>
   <time name="total">    1.11    0.46</time>
   <energy>
    <i name="alphaZ">    134.15010455 </i>
    <i name="ewald">  -1542.80033997 </i>
    <i name="hartreedc">   -416.77026842 </i>
    <i name="XCdc">      7.28737334 </i>
    <i name="pawpsdc">   1513.42636631 </i>
    <i name="pawaedc">  -1537.34060406 </i>
    <i name="eentropy">      0.00578136 </i>
    <i name="bandstr">     34.38293131 </i>
    <i name="atom">   1786.61487174 </i>
    <i name="e_fr_energy">    -21.04378385 </i>
    <i name="e_wo_entrp">    -21.04956521 </i>
    <i name="e_0_energy">    -21.04571097 </i>
   </energy>
  </scstep>
  <structure>
   <crystal>
    <varray name="basis" >
     <v>       3.58505100       0.00000000       0.00000000 </v>
     <v>       0.00000000       3.58505100       0.00000000 </v>
     <v>       0.00000000       0.00000000       3.58505100 </v>
    </varray>
    <i name="volume">     46.07719304 </i>
    <varray name="rec_basis" >
     <v>       0.27893606       0.00000000       0.00000000 </v>
     <v>       0.00000000       0.27893606       0.00000000 </v>
     <v>       0.00000000       0.00000000       0.27893606 </v>
    </varray>
   </crystal>
   <varray name="positions" >
    <v>       0.00000000       0.25000000       0.25000000 </v>
    <v>       0.50000000      -0.03927874       0.53927874 </v>
    <v>       0.50000000       0.53927874      -0.03927874 </v>
   </varray>
  </structure>
  <varray name="forces" >
   <v>       0.00000000       0.00000000       0.00000000 </v>
   <v>       0.00000000      -0.00231963       0.00231963 </v>
   <v>       0.00000000       0.00231963      -0.00231963 </v>
  </varray>
  <varray name="stress" >
   <v>    -218.88283419       0.00000000       0.00000000 </v>
   <v>       0.00000000    -287.87851363     -65.08421614 </v>
   <v>       0.00000000     -65.08421614    -287.87851363 </v>
  </varray>
  <energy>
   <i name="e_fr_energy">    -21.04378385 </i>
   <i name="e_wo_entrp">    -21.04571097 </i>
   <i name="e_0_energy">      0.00578136 </i>
  </energy>
  <time name="totalsc">   12.07    5.06</time>
  <eigenvalues>
   <array>
    <dimension dim="1">band</dimension>
    <dimension dim="2">kpoint</dimension>
    <dimension dim="3">spin</dimension>
    <field>eigene</field>
    <field>occ</field>
    <set>
     <set comment="spin 1">
      <set comment="kpoint 1">
       <r>   -1.4263    1.0000 </r>
       <r>    0.1089    1.0000 </r>
       <r>    0.6197    1.0000 </r>
       <r>    0.9906    1.0000 </r>
       <r>    1.1045    1.0000 </r>
       <r>    1.3578    1.0000 </r>
       <r>    1.4856    1.0000 </r>
       <r>    1.7575    1.0000 </r>
       <r>    2.4192    1.0000 </r>
       <r>    2.8317    1.0055 </r>
       <r>    3.0332    1.0329 </r>
       <r>    3.1739    0.8115 </r>
       <r>    3.4672   -0.0306 </r>
       <r>    3.5255   -0.0332 </r>
       <r>    3.8449   -0.0001 </r>
       <r>    4.3528    0.0000 </r>
      </set>
      <set comment="kpoint 2">
       <r>   -1.3209    1.0000 </r>
       <r>    0.6293    1.0000 </r>
       <r>    0.6925    1.0000 </r>
       <r>    0.9157    1.0000 </r>
       <r>    1.1603    1.0000 </r>
       <r>    1.2255    1.0000 </r>
       <r>    1.4740    1.0000 </r>
       <r>    1.9790    1.0000 </r>
       <r>    2.0225    1.0000 </r>
       <r>    2.2632    1.0000 </r>
       <r>    2.7730    1.0017 </r>
       <r>    3.1054    0.9744 </r>
       <r>    3.3192    0.2404 </r>
       <r>    3.7274   -0.0021 </r>
       <r>    3.8139   -0.0003 </r>
       <r>    4.1164    0.0000 </r>
      </set>
     </set>
    </set>
   </array>
  </eigenvalues>
  <separator name="orbital magnetization" >
   <v name="MAGDIPOLOUT">      0.00000000      0.00000000      0.00000000</v>
  </separator>
 </calculation>
 <structure name="finalpos" >
  <crystal>
   <varray name="basis" >
    <v>       3.58505100       0.00000000       0.00000000 </v>
    <v>       0.00000000       3.58505100       0.00000000 </v>
    <v>       0.00000000       0.00000000       3.58505100 </v>
   </varray>
   <i name="volume">     46.07719304 </i>
   <varray name="rec_basis" >
    <v>       0.27893606       0.00000000       0.00000000 </v>
    <v>       0.00000000       0.27893606       0.00000000 </v>
    <v>       0.00000000       0.00000000       0.27893606 </v>
   </varray>
  </crystal>
  <varray name="positions" >
   <v>       0.00000000       0.25000000       0.25000000 </v>
   <v>       0.50000000      -0.03927874       0.53927874 </v>
   <v>       0.50000000       0.53927874      -0.03927874 </v>
  </varray>
 </structure>
</modeling>
