    3    3  191    1
  0.1535906E+02  0.3585051E-09  0.3585051E-09  0.3585051E-09  0.5000000E-15
  1.000000000000000E-004
  CAR 
 unknown system                          
   24    1   16
 
  0.0000000E+00  0.0000000E+00  0.0000000E+00  0.1000000E+01
   1       -3.454963
   2        0.006063
   3        0.294686
   4        0.978997
   5        1.442229
   6        2.293229
   7        2.357620
   8        2.513455
   9        2.687047
  10        3.005272
  11        3.212918
  12        3.990760
  13        4.068878
  14        4.496064
  15        4.568275
  16        5.169467
