   8   8   0   0
  0.2226630E+02  0.5626600E-09  0.5626600E-09  0.5626600E-09  0.5000000E-15
  1.000000000000000E-004
  CAR 
 unknown system                          
     10.92240730    -13.18884043  301      2.76990189      1.00000000
    -13.189  0.0000E+00  0.0000E+00  0.0000E+00  0.0000E+00
    -13.108  0.0000E+00  0.0000E+00  0.0000E+00  0.0000E+00
    -13.028  0.0000E+00  0.0000E+00  0.0000E+00  0.0000E+00
    -12.948  0.0000E+00  0.0000E+00  0.0000E+00  0.0000E+00
    -12.867 -0.7552E-31 -0.7576E-31 -0.6070E-32 -0.6089E-32
    -12.787 -0.5858E-28 -0.5876E-28 -0.4714E-29 -0.4729E-29
    -12.707 -0.2963E-25 -0.2972E-25 -0.2386E-26 -0.2393E-26
    -12.626 -0.1084E-22 -0.1087E-22 -0.8735E-24 -0.8759E-24
    -12.546 -0.2868E-20 -0.2875E-20 -0.2314E-21 -0.2320E-21
    -12.466 -0.5488E-18 -0.5502E-18 -0.4434E-19 -0.4445E-19
    -12.385 -0.7595E-16 -0.7613E-16 -0.6149E-17 -0.6163E-17
    -12.305 -0.7356E-14 -0.7373E-14 -0.5974E-15 -0.5987E-15
    -12.224 -0.5294E-12 -0.5305E-12 -0.4315E-13 -0.4324E-13
    -12.144 -0.2747E-10 -0.2752E-10 -0.2251E-11 -0.2255E-11
    -12.064 -0.1026E-08 -0.1028E-08 -0.8475E-10 -0.8489E-10
    -11.983 -0.2759E-07 -0.2764E-07 -0.2303E-08 -0.2306E-08
    -11.903 -0.5324E-06 -0.5332E-06 -0.4510E-07 -0.4516E-07
    -11.823 -0.7352E-05 -0.7361E-05 -0.6360E-06 -0.6368E-06
    -11.742 -0.7233E-04 -0.7240E-04 -0.6449E-05 -0.6456E-05
    -11.662 -0.5033E-03 -0.5038E-03 -0.4690E-04 -0.4695E-04
    -11.581 -0.2445E-02 -0.2446E-02 -0.2434E-03 -0.2436E-03
    -11.501 -0.8027E-02 -0.8030E-02 -0.8885E-03 -0.8890E-03
    -11.421 -0.1611E-01 -0.1611E-01 -0.2183E-02 -0.2184E-02
    -11.340 -0.1002E-01 -0.1001E-01 -0.2989E-02 -0.2988E-02
    -11.260  0.5038E-01  0.5043E-01  0.1061E-02  0.1065E-02
    -11.180  0.2011E+00  0.2012E+00  0.1722E-01  0.1723E-01
    -11.099  0.4057E+00  0.4058E+00  0.4983E-01  0.4985E-01
    -11.019  0.5299E+00  0.5299E+00  0.9242E-01  0.9244E-01
    -10.938  0.4587E+00  0.4586E+00  0.1293E+00  0.1293E+00
    -10.858  0.2470E+00  0.2469E+00  0.1491E+00  0.1491E+00
    -10.778  0.6038E-01  0.6032E-01  0.1540E+00  0.1540E+00
    -10.697 -0.1683E-01 -0.1684E-01  0.1526E+00  0.1526E+00
    -10.617 -0.2099E-01 -0.2098E-01  0.1509E+00  0.1509E+00
    -10.537 -0.9020E-02 -0.9014E-02  0.1502E+00  0.1502E+00
    -10.456 -0.2334E-02 -0.2332E-02  0.1500E+00  0.1500E+00
    -10.376 -0.4045E-03 -0.4041E-03  0.1500E+00  0.1500E+00
    -10.295 -0.6358E-04 -0.6353E-04  0.1500E+00  0.1500E+00
    -10.215 -0.1131E-03 -0.1131E-03  0.1500E+00  0.1500E+00
    -10.135 -0.5179E-03 -0.5180E-03  0.1499E+00  0.1499E+00
    -10.054 -0.1524E-02 -0.1524E-02  0.1498E+00  0.1498E+00
     -9.974 -0.2079E-02 -0.2079E-02  0.1497E+00  0.1497E+00
     -9.894  0.2367E-02  0.2368E-02  0.1498E+00  0.1498E+00
     -9.813  0.1666E-01  0.1666E-01  0.1512E+00  0.1512E+00
     -9.733  0.3502E-01  0.3502E-01  0.1540E+00  0.1540E+00
     -9.653  0.4093E-01  0.4093E-01  0.1573E+00  0.1573E+00
     -9.572  0.2803E-01  0.2802E-01  0.1595E+00  0.1595E+00
     -9.492  0.9637E-02  0.9634E-02  0.1603E+00  0.1603E+00
     -9.411 -0.4717E-03 -0.4724E-03  0.1603E+00  0.1603E+00
     -9.331 -0.2109E-02 -0.2109E-02  0.1601E+00  0.1601E+00
     -9.251 -0.1048E-02 -0.1048E-02  0.1600E+00  0.1600E+00
     -9.170 -0.2884E-03 -0.2883E-03  0.1600E+00  0.1600E+00
     -9.090 -0.5121E-04 -0.5120E-04  0.1600E+00  0.1600E+00
     -9.010 -0.6175E-05 -0.6173E-05  0.1600E+00  0.1600E+00
     -8.929 -0.5174E-06 -0.5172E-06  0.1600E+00  0.1600E+00
     -8.849 -0.3058E-07 -0.3057E-07  0.1600E+00  0.1600E+00
     -8.768 -0.3097E-08 -0.3097E-08  0.1600E+00  0.1600E+00
     -8.688 -0.4198E-07 -0.4199E-07  0.1600E+00  0.1600E+00
     -8.608 -0.6852E-06 -0.6854E-06  0.1600E+00  0.1600E+00
     -8.527 -0.7873E-05 -0.7875E-05  0.1600E+00  0.1600E+00
     -8.447 -0.6274E-04 -0.6276E-04  0.1600E+00  0.1600E+00
     -8.367 -0.3383E-03 -0.3383E-03  0.1600E+00  0.1600E+00
     -8.286 -0.1166E-02 -0.1167E-02  0.1599E+00  0.1599E+00
     -8.206 -0.2155E-02 -0.2155E-02  0.1597E+00  0.1597E+00
     -8.125  0.1088E-03  0.1094E-03  0.1597E+00  0.1597E+00
     -8.045  0.1133E-01  0.1133E-01  0.1606E+00  0.1606E+00
     -7.965  0.2998E-01  0.2998E-01  0.1630E+00  0.1630E+00
     -7.884  0.4118E-01  0.4118E-01  0.1663E+00  0.1663E+00
     -7.804  0.3279E-01  0.3278E-01  0.1690E+00  0.1690E+00
     -7.724  0.1261E-01  0.1261E-01  0.1700E+00  0.1700E+00
     -7.643 -0.2756E-02 -0.2757E-02  0.1698E+00  0.1698E+00
     -7.563 -0.3077E-02 -0.3076E-02  0.1695E+00  0.1695E+00
     -7.483  0.1792E-01  0.1792E-01  0.1710E+00  0.1710E+00
     -7.402  0.5566E-01  0.5566E-01  0.1754E+00  0.1754E+00
     -7.322  0.8179E-01  0.8179E-01  0.1820E+00  0.1820E+00
     -7.241  0.6999E-01  0.6999E-01  0.1876E+00  0.1876E+00
     -7.161  0.3326E-01  0.3326E-01  0.1903E+00  0.1903E+00
     -7.081  0.4710E-02  0.4708E-02  0.1907E+00  0.1907E+00
     -7.000 -0.4160E-02 -0.4160E-02  0.1903E+00  0.1903E+00
     -6.920 -0.3045E-02 -0.3044E-02  0.1901E+00  0.1901E+00
     -6.840 -0.1033E-02 -0.1033E-02  0.1900E+00  0.1900E+00
     -6.759 -0.2175E-03 -0.2174E-03  0.1900E+00  0.1900E+00
     -6.679 -0.3059E-04 -0.3058E-04  0.1900E+00  0.1900E+00
     -6.598 -0.2967E-05 -0.2966E-05  0.1900E+00  0.1900E+00
     -6.518 -0.2017E-06 -0.2016E-06  0.1900E+00  0.1900E+00
     -6.438 -0.9700E-08 -0.9697E-08  0.1900E+00  0.1900E+00
     -6.357 -0.3490E-09 -0.3488E-09  0.1900E+00  0.1900E+00
     -6.277 -0.6181E-09 -0.6184E-09  0.1900E+00  0.1900E+00
     -6.197 -0.1570E-07 -0.1571E-07  0.1900E+00  0.1900E+00
     -6.116 -0.2871E-06 -0.2872E-06  0.1900E+00  0.1900E+00
     -6.036 -0.3702E-05 -0.3703E-05  0.1900E+00  0.1900E+00
     -5.955 -0.3330E-04 -0.3331E-04  0.1900E+00  0.1900E+00
     -5.875 -0.2047E-03 -0.2047E-03  0.1900E+00  0.1900E+00
     -5.795 -0.8242E-03 -0.8243E-03  0.1899E+00  0.1899E+00
     -5.714 -0.1939E-02 -0.1939E-02  0.1898E+00  0.1898E+00
     -5.634 -0.1355E-02 -0.1354E-02  0.1896E+00  0.1896E+00
     -5.554  0.6507E-02  0.6508E-02  0.1902E+00  0.1902E+00
     -5.473  0.2383E-01  0.2383E-01  0.1921E+00  0.1921E+00
     -5.393  0.3949E-01  0.3949E-01  0.1953E+00  0.1953E+00
     -5.312  0.3793E-01  0.3792E-01  0.1983E+00  0.1983E+00
     -5.232  0.2083E-01  0.2083E-01  0.2000E+00  0.2000E+00
     -5.152  0.4610E-02  0.4608E-02  0.2004E+00  0.2004E+00
     -5.071 -0.1759E-02 -0.1759E-02  0.2002E+00  0.2002E+00
     -4.991 -0.1779E-02 -0.1779E-02  0.2001E+00  0.2001E+00
     -4.911 -0.6857E-03 -0.6856E-03  0.2000E+00  0.2000E+00
     -4.830 -0.1588E-03 -0.1588E-03  0.2000E+00  0.2000E+00
     -4.750 -0.2432E-04 -0.2432E-04  0.2000E+00  0.2000E+00
     -4.670 -0.2556E-05 -0.2555E-05  0.2000E+00  0.2000E+00
     -4.589 -0.1877E-06 -0.1876E-06  0.2000E+00  0.2000E+00
     -4.509 -0.9735E-08 -0.9731E-08  0.2000E+00  0.2000E+00
     -4.428 -0.3590E-09 -0.3588E-09  0.2000E+00  0.2000E+00
     -4.348 -0.9451E-11 -0.9448E-11  0.2000E+00  0.2000E+00
     -4.268 -0.1783E-12 -0.1781E-12  0.2000E+00  0.2000E+00
     -4.187 -0.2404E-14 -0.2404E-14  0.2000E+00  0.2000E+00
     -4.107 -0.2763E-16 -0.2763E-16  0.2000E+00  0.2000E+00
     -4.027 -0.8180E-18 -0.8187E-18  0.2000E+00  0.2000E+00
     -3.946 -0.1107E-15 -0.1108E-15  0.2000E+00  0.2000E+00
     -3.866 -0.1044E-13 -0.1045E-13  0.2000E+00  0.2000E+00
     -3.785 -0.7288E-12 -0.7292E-12  0.2000E+00  0.2000E+00
     -3.705 -0.3647E-10 -0.3649E-10  0.2000E+00  0.2000E+00
     -3.625 -0.1307E-08 -0.1307E-08  0.2000E+00  0.2000E+00
     -3.544 -0.3340E-07 -0.3342E-07  0.2000E+00  0.2000E+00
     -3.464 -0.6065E-06 -0.6068E-06  0.2000E+00  0.2000E+00
     -3.384 -0.7767E-05 -0.7770E-05  0.2000E+00  0.2000E+00
     -3.303 -0.6934E-04 -0.6936E-04  0.2000E+00  0.2000E+00
     -3.223 -0.4228E-03 -0.4229E-03  0.2000E+00  0.2000E+00
     -3.142 -0.1687E-02 -0.1687E-02  0.1998E+00  0.1998E+00
     -3.062 -0.3916E-02 -0.3917E-02  0.1995E+00  0.1995E+00
     -2.982 -0.2579E-02 -0.2578E-02  0.1993E+00  0.1993E+00
     -2.901  0.1355E-01  0.1355E-01  0.2004E+00  0.2004E+00
     -2.821  0.4844E-01  0.4845E-01  0.2043E+00  0.2043E+00
     -2.741  0.7933E-01  0.7933E-01  0.2107E+00  0.2107E+00
     -2.660  0.7538E-01  0.7538E-01  0.2167E+00  0.2167E+00
     -2.580  0.4088E-01  0.4087E-01  0.2200E+00  0.2200E+00
     -2.500  0.8763E-02  0.8760E-02  0.2207E+00  0.2207E+00
     -2.419 -0.3599E-02 -0.3600E-02  0.2204E+00  0.2204E+00
     -2.339 -0.3513E-02 -0.3513E-02  0.2201E+00  0.2201E+00
     -2.258 -0.1338E-02 -0.1337E-02  0.2200E+00  0.2200E+00
     -2.178 -0.3071E-03 -0.3070E-03  0.2200E+00  0.2200E+00
     -2.098 -0.4675E-04 -0.4673E-04  0.2200E+00  0.2200E+00
     -2.017 -0.6150E-05 -0.6149E-05  0.2200E+00  0.2200E+00
     -1.937 -0.1386E-04 -0.1387E-04  0.2200E+00  0.2200E+00
     -1.857 -0.9819E-04 -0.9822E-04  0.2200E+00  0.2200E+00
     -1.776 -0.4781E-03 -0.4782E-03  0.2200E+00  0.2200E+00
     -1.696 -0.1453E-02 -0.1454E-02  0.2198E+00  0.2198E+00
     -1.615 -0.2122E-02 -0.2122E-02  0.2197E+00  0.2197E+00
     -1.535  0.1854E-02  0.1855E-02  0.2198E+00  0.2198E+00
     -1.455  0.1557E-01  0.1558E-01  0.2211E+00  0.2211E+00
     -1.374  0.3412E-01  0.3413E-01  0.2238E+00  0.2238E+00
     -1.294  0.4115E-01  0.4115E-01  0.2271E+00  0.2271E+00
     -1.214  0.2912E-01  0.2912E-01  0.2295E+00  0.2295E+00
     -1.133  0.1056E-01  0.1056E-01  0.2303E+00  0.2303E+00
     -1.053 -0.1649E-03 -0.1658E-03  0.2303E+00  0.2303E+00
     -0.972 -0.2144E-02 -0.2144E-02  0.2301E+00  0.2301E+00
     -0.892 -0.1165E-02 -0.1164E-02  0.2300E+00  0.2300E+00
     -0.812 -0.6078E-03 -0.6077E-03  0.2300E+00  0.2300E+00
     -0.731 -0.1124E-02 -0.1124E-02  0.2299E+00  0.2299E+00
     -0.651 -0.2208E-02 -0.2208E-02  0.2297E+00  0.2297E+00
     -0.571 -0.9398E-03 -0.9392E-03  0.2296E+00  0.2296E+00
     -0.490  0.7841E-02  0.7843E-02  0.2303E+00  0.2303E+00
     -0.410  0.2407E-01  0.2407E-01  0.2322E+00  0.2322E+00
     -0.330  0.3925E-01  0.3925E-01  0.2354E+00  0.2354E+00
     -0.249  0.5165E-01  0.5166E-01  0.2395E+00  0.2395E+00
     -0.169  0.6937E-01  0.6938E-01  0.2451E+00  0.2451E+00
     -0.088  0.8328E-01  0.8328E-01  0.2518E+00  0.2518E+00
     -0.008  0.7037E-01  0.7036E-01  0.2574E+00  0.2574E+00
      0.072  0.3497E-01  0.3496E-01  0.2602E+00  0.2602E+00
      0.153  0.5822E-02  0.5819E-02  0.2607E+00  0.2607E+00
      0.233 -0.4086E-02 -0.4087E-02  0.2604E+00  0.2604E+00
      0.313 -0.3310E-02 -0.3309E-02  0.2601E+00  0.2601E+00
      0.394 -0.1465E-02 -0.1465E-02  0.2600E+00  0.2600E+00
      0.474 -0.1589E-02 -0.1589E-02  0.2599E+00  0.2599E+00
      0.555 -0.3547E-02 -0.3547E-02  0.2596E+00  0.2596E+00
      0.635 -0.3607E-02 -0.3607E-02  0.2593E+00  0.2593E+00
      0.715  0.8738E-02  0.8741E-02  0.2600E+00  0.2600E+00
      0.796  0.4083E-01  0.4084E-01  0.2633E+00  0.2633E+00
      0.876  0.7536E-01  0.7536E-01  0.2693E+00  0.2693E+00
      0.956  0.7935E-01  0.7934E-01  0.2757E+00  0.2757E+00
      1.037  0.4847E-01  0.4846E-01  0.2796E+00  0.2796E+00
      1.117  0.1347E-01  0.1346E-01  0.2807E+00  0.2807E+00
      1.198 -0.3097E-02 -0.3098E-02  0.2804E+00  0.2804E+00
      1.278 -0.5454E-02 -0.5454E-02  0.2800E+00  0.2800E+00
      1.358 -0.3759E-02 -0.3758E-02  0.2797E+00  0.2797E+00
      1.439  0.2035E-02  0.2037E-02  0.2799E+00  0.2799E+00
      1.519  0.1678E-01  0.1678E-01  0.2812E+00  0.2812E+00
      1.599  0.3516E-01  0.3517E-01  0.2840E+00  0.2840E+00
      1.680  0.4089E-01  0.4089E-01  0.2873E+00  0.2873E+00
      1.760  0.2784E-01  0.2784E-01  0.2896E+00  0.2896E+00
      1.841  0.9481E-02  0.9479E-02  0.2903E+00  0.2903E+00
      1.921 -0.5232E-03 -0.5239E-03  0.2903E+00  0.2903E+00
      2.001 -0.2124E-02 -0.2124E-02  0.2901E+00  0.2901E+00
      2.082 -0.1196E-02 -0.1196E-02  0.2900E+00  0.2900E+00
      2.162 -0.1099E-02 -0.1099E-02  0.2899E+00  0.2899E+00
      2.242 -0.2683E-02 -0.2684E-02  0.2897E+00  0.2897E+00
      2.323 -0.4335E-02 -0.4335E-02  0.2894E+00  0.2894E+00
      2.403  0.1914E-02  0.1916E-02  0.2895E+00  0.2895E+00
      2.483  0.2704E-01  0.2705E-01  0.2917E+00  0.2917E+00
      2.564  0.6451E-01  0.6451E-01  0.2969E+00  0.2969E+00
      2.644  0.8274E-01  0.8274E-01  0.3035E+00  0.3035E+00
      2.725  0.6237E-01  0.6236E-01  0.3085E+00  0.3085E+00
      2.805  0.2490E-01  0.2490E-01  0.3105E+00  0.3105E+00
      2.885  0.1056E-02  0.1054E-02  0.3106E+00  0.3106E+00
      2.966 -0.4339E-02 -0.4339E-02  0.3103E+00  0.3103E+00
      3.046 -0.2534E-02 -0.2533E-02  0.3101E+00  0.3101E+00
      3.126 -0.1013E-02 -0.1013E-02  0.3100E+00  0.3100E+00
      3.207 -0.1137E-02 -0.1137E-02  0.3099E+00  0.3099E+00
      3.287 -0.2097E-02 -0.2097E-02  0.3097E+00  0.3097E+00
      3.368 -0.7062E-03 -0.7055E-03  0.3097E+00  0.3097E+00
      3.448  0.8891E-02  0.8894E-02  0.3104E+00  0.3104E+00
      3.528  0.2710E-01  0.2710E-01  0.3126E+00  0.3126E+00
      3.609  0.4069E-01  0.4070E-01  0.3158E+00  0.3158E+00
      3.689  0.3574E-01  0.3573E-01  0.3187E+00  0.3187E+00
      3.769  0.1758E-01  0.1757E-01  0.3201E+00  0.3201E+00
      3.850  0.2825E-02  0.2823E-02  0.3203E+00  0.3203E+00
      3.930 -0.2030E-02 -0.2030E-02  0.3202E+00  0.3202E+00
      4.011 -0.1583E-02 -0.1582E-02  0.3201E+00  0.3201E+00
      4.091 -0.5525E-03 -0.5523E-03  0.3200E+00  0.3200E+00
      4.171 -0.1188E-03 -0.1188E-03  0.3200E+00  0.3200E+00
      4.252 -0.1704E-04 -0.1703E-04  0.3200E+00  0.3200E+00
      4.332 -0.1683E-05 -0.1682E-05  0.3200E+00  0.3200E+00
      4.412 -0.1164E-06 -0.1164E-06  0.3200E+00  0.3200E+00
      4.493 -0.5698E-08 -0.5695E-08  0.3200E+00  0.3200E+00
      4.573 -0.2443E-09 -0.2443E-09  0.3200E+00  0.3200E+00
      4.653 -0.1655E-08 -0.1656E-08  0.3200E+00  0.3200E+00
      4.734 -0.4233E-07 -0.4235E-07  0.3200E+00  0.3200E+00
      4.814 -0.7732E-06 -0.7736E-06  0.3200E+00  0.3200E+00
      4.895 -0.9987E-05 -0.9991E-05  0.3200E+00  0.3200E+00
      4.975 -0.9022E-04 -0.9025E-04  0.3200E+00  0.3200E+00
      5.055 -0.5591E-03 -0.5592E-03  0.3199E+00  0.3199E+00
      5.136 -0.2283E-02 -0.2284E-02  0.3198E+00  0.3198E+00
      5.216 -0.5520E-02 -0.5520E-02  0.3193E+00  0.3193E+00
      5.296 -0.4400E-02 -0.4399E-02  0.3190E+00  0.3190E+00
      5.377  0.1700E-01  0.1700E-01  0.3203E+00  0.3203E+00
      5.457  0.6672E-01  0.6673E-01  0.3257E+00  0.3257E+00
      5.538  0.1151E+00  0.1151E+00  0.3349E+00  0.3349E+00
      5.618  0.1154E+00  0.1154E+00  0.3442E+00  0.3442E+00
      5.698  0.6729E-01  0.6728E-01  0.3496E+00  0.3496E+00
      5.779  0.1742E-01  0.1741E-01  0.3510E+00  0.3510E+00
      5.859 -0.4268E-02 -0.4269E-02  0.3507E+00  0.3507E+00
      5.939 -0.5540E-02 -0.5539E-02  0.3502E+00  0.3502E+00
      6.020 -0.2364E-02 -0.2364E-02  0.3500E+00  0.3500E+00
      6.100 -0.8601E-03 -0.8600E-03  0.3500E+00  0.3500E+00
      6.181 -0.1141E-02 -0.1141E-02  0.3499E+00  0.3499E+00
      6.261 -0.2119E-02 -0.2120E-02  0.3497E+00  0.3497E+00
      6.341 -0.4744E-03 -0.4735E-03  0.3497E+00  0.3497E+00
      6.422  0.9631E-02  0.9633E-02  0.3505E+00  0.3505E+00
      6.502  0.2802E-01  0.2802E-01  0.3527E+00  0.3527E+00
      6.582  0.4093E-01  0.4093E-01  0.3560E+00  0.3560E+00
      6.663  0.3502E-01  0.3502E-01  0.3588E+00  0.3588E+00
      6.743  0.1660E-01  0.1659E-01  0.3601E+00  0.3601E+00
      6.823  0.1950E-02  0.1948E-02  0.3603E+00  0.3603E+00
      6.904 -0.3759E-02 -0.3760E-02  0.3600E+00  0.3600E+00
      6.984 -0.5435E-02 -0.5435E-02  0.3596E+00  0.3596E+00
      7.065 -0.3119E-02 -0.3117E-02  0.3593E+00  0.3593E+00
      7.145  0.1335E-01  0.1336E-01  0.3604E+00  0.3604E+00
      7.225  0.4830E-01  0.4831E-01  0.3643E+00  0.3643E+00
      7.306  0.7927E-01  0.7928E-01  0.3706E+00  0.3706E+00
      7.386  0.7546E-01  0.7545E-01  0.3767E+00  0.3767E+00
      7.466  0.4100E-01  0.4100E-01  0.3800E+00  0.3800E+00
      7.547  0.8836E-02  0.8831E-02  0.3807E+00  0.3807E+00
      7.627 -0.3586E-02 -0.3587E-02  0.3804E+00  0.3804E+00
      7.708 -0.3520E-02 -0.3520E-02  0.3801E+00  0.3801E+00
      7.788 -0.1345E-02 -0.1345E-02  0.3800E+00  0.3800E+00
      7.868 -0.3311E-03 -0.3310E-03  0.3800E+00  0.3800E+00
      7.949 -0.2146E-03 -0.2146E-03  0.3800E+00  0.3800E+00
      8.029 -0.8519E-03 -0.8521E-03  0.3799E+00  0.3799E+00
      8.109 -0.2698E-02 -0.2698E-02  0.3797E+00  0.3797E+00
      8.190 -0.4319E-02 -0.4319E-02  0.3794E+00  0.3794E+00
      8.270  0.2311E-02  0.2313E-02  0.3795E+00  0.3795E+00
      8.351  0.2797E-01  0.2798E-01  0.3818E+00  0.3818E+00
      8.431  0.6527E-01  0.6527E-01  0.3870E+00  0.3870E+00
      8.511  0.8204E-01  0.8204E-01  0.3936E+00  0.3936E+00
      8.592  0.5968E-01  0.5967E-01  0.3984E+00  0.3984E+00
      8.672  0.2215E-01  0.2215E-01  0.4002E+00  0.4002E+00
      8.752  0.4885E-02  0.4884E-02  0.4006E+00  0.4006E+00
      8.833  0.1576E-01  0.1576E-01  0.4019E+00  0.4019E+00
      8.913  0.3505E-01  0.3505E-01  0.4047E+00  0.4047E+00
      8.994  0.3910E-01  0.3910E-01  0.4078E+00  0.4078E+00
      9.074  0.2444E-01  0.2444E-01  0.4098E+00  0.4098E+00
      9.154  0.7002E-02  0.7000E-02  0.4103E+00  0.4103E+00
      9.235 -0.1229E-02 -0.1230E-02  0.4102E+00  0.4102E+00
      9.315 -0.1975E-02 -0.1975E-02  0.4101E+00  0.4101E+00
      9.395 -0.8612E-03 -0.8611E-03  0.4100E+00  0.4100E+00
      9.476 -0.2177E-03 -0.2176E-03  0.4100E+00  0.4100E+00
      9.556 -0.3596E-04 -0.3595E-04  0.4100E+00  0.4100E+00
      9.636 -0.4055E-05 -0.4054E-05  0.4100E+00  0.4100E+00
      9.717 -0.3187E-06 -0.3186E-06  0.4100E+00  0.4100E+00
      9.797 -0.1766E-07 -0.1766E-07  0.4100E+00  0.4100E+00
      9.878 -0.6953E-09 -0.6949E-09  0.4100E+00  0.4100E+00
      9.958 -0.1953E-10 -0.1952E-10  0.4100E+00  0.4100E+00
     10.038 -0.3926E-12 -0.3923E-12  0.4100E+00  0.4100E+00
     10.119 -0.5664E-14 -0.5664E-14  0.4100E+00  0.4100E+00
     10.199 -0.5526E-16 -0.5526E-16  0.4100E+00  0.4100E+00
     10.279  0.0000E+00  0.0000E+00  0.4100E+00  0.4100E+00
     10.360  0.0000E+00  0.0000E+00  0.4100E+00  0.4100E+00
     10.440  0.0000E+00  0.0000E+00  0.4100E+00  0.4100E+00
     10.521  0.0000E+00  0.0000E+00  0.4100E+00  0.4100E+00
     10.601  0.0000E+00  0.0000E+00  0.4100E+00  0.4100E+00
     10.681  0.0000E+00  0.0000E+00  0.4100E+00  0.4100E+00
     10.762  0.0000E+00  0.0000E+00  0.4100E+00  0.4100E+00
     10.842  0.0000E+00  0.0000E+00  0.4100E+00  0.4100E+00
     10.922  0.0000E+00  0.0000E+00  0.4100E+00  0.4100E+00
