    8    8  100    2
  0.2226630E+02  0.5626600E-09  0.5626600E-09  0.5626600E-09  0.5000000E-15
  1.000000000000000E-004
  CAR 
 unknown system                          
   62    1   41
 
  0.2500000E+00  0.2500000E+00  0.2500000E+00  0.1000000E+01
   1      -11.188802    -11.188840
   2      -11.154486    -11.154526
   3      -11.154486    -11.154525
   4      -11.096906    -11.096946
   5      -11.057014    -11.057055
   6      -11.057013    -11.057054
   7      -11.048036    -11.048077
   8      -11.036280    -11.036322
   9      -11.036279    -11.036321
  10      -11.027218    -11.027257
  11      -11.009270    -11.009309
  12      -11.009268    -11.009308
  13      -10.982166    -10.982207
  14      -10.982165    -10.982206
  15      -10.968914    -10.968955
  16       -9.709136     -9.709148
  17       -7.916683     -7.916692
  18       -7.345634     -7.345642
  19       -7.345634     -7.345642
  20       -5.399059     -5.399068
  21       -2.748436     -2.748448
  22       -2.748436     -2.748448
  23       -1.345849     -1.345862
  24       -0.353896     -0.353908
  25       -0.105394     -0.105407
  26       -0.105394     -0.105407
  27        0.883947      0.883935
  28        0.883947      0.883935
  29        1.622339      1.622328
  30        2.601531      2.601520
  31        2.601531      2.601520
  32        3.588847      3.588834
  33        5.526896      5.526883
  34        5.526896      5.526883
  35        5.560289      5.560275
  36        6.558655      6.558640
  37        7.298177      7.298161
  38        7.298177      7.298161
  39        8.466429      8.466416
  40        8.466429      8.466416
  41        8.922407      8.922395
