 vasp.5.2.2 15Apr09 complex 
 executed on             LinuxIFC date 2011.11.10  10:51:29
 running on    6 nodes
 each image running on    2 nodes
 distr:  one band on    2 nodes,    1 groups


--------------------------------------------------------------------------------------------------------


 INCAR:
 POTCAR:   PAW_PBE Al 04Jan2001                   
 POTCAR:   PAW_PBE Al 04Jan2001                   
   VRHFIN =Al: s2p1                                                             
   LEXCH  = PE                                                                  
   EATOM  =    53.5387 eV,    3.9350 Ry                                         
                                                                                
   TITEL  = PAW_PBE Al 04Jan2001                                                
   LULTRA =        F    use ultrasoft PP ?                                      
   IUNSCR =        1    unscreen: 0-lin 1-nonlin 2-no                           
   RPACOR =    1.500    partial core radius                                     
   POMASS =   26.982; ZVAL   =    3.000    mass and valenz                      
   RCORE  =    1.900    outmost cutoff radius                                   
   RWIGS  =    2.650; RWIGS  =    1.402    wigner-seitz radius (au A)           
   ENMAX  =  240.300; ENMIN  =  180.225 eV                                      
   ICORE  =        2    local potential                                         
   LCOR   =        T    correct aug charges                                     
   LPAW   =        T    paw PP                                                  
   EAUG   =  291.052                                                            
   DEXC   =    -.041                                                            
   RMAX   =    2.974    core radius for proj-oper                               
   RAUG   =    1.300    factor for augmentation sphere                          
   RDEP   =    1.966    radius for radial grids                                 
   QCUT   =   -4.203; QGAM   =    8.405    optimization parameters              
                                                                                
   Description                                                                  
     l     E      TYP  RCUT    TYP  RCUT                                        
     0   .000     23  1.900                                                     
     0   .000     23  1.900                                                     
     1   .000     23  1.900                                                     
     1  1.000     23  1.900                                                     
     2   .000      7  1.900                                                     
  local pseudopotential read in
  partial core-charges read in
  atomic valenz-charges read in
  non local Contribution for L=           0  read in
    real space projection operators read in
  non local Contribution for L=           0  read in
    real space projection operators read in
  non local Contribution for L=           1  read in
    real space projection operators read in
  non local Contribution for L=           1  read in
    real space projection operators read in
    PAW grid and wavefunctions read in
 
   number of l-projection  operators is LMAX  =           4
   number of lm-projection operators is LMMAX =           8
 

 ----------------------------------------------------------------------------- 
|                                                                             |
|  ADVICE TO THIS USER RUNNING 'VASP/VAMP'   (HEAR YOUR MASTER'S VOICE ...):  |
|                                                                             |
|      You have a (more or less) 'large supercell' and for larger cells       |
|      it might be more efficient to use real space projection operators      |
|      So try LREAL= Auto  in the INCAR   file.                               |
|      Mind: If you want to do a very accurate calculations keep the          |
|      reciprocal projection scheme          (i.e. LREAL=.FALSE.)             |
|                                                                             |
 ----------------------------------------------------------------------------- 

 PAW_PBE Al 04Jan2001                   :
 energy of atom  1       EATOM=  -53.5387
 kinetic energy error for atom=    0.0006 (will be added to EATOM!!)
 
 
 POSCAR: POSCAR_02:FCC Al endpoint 1             
  positions in direct lattice
  No initial velocities read in
 exchange correlation table for  LEXCH =        8
   RHO(1)=    0.500       N(1)  =     2000
   RHO(2)=  100.500       N(2)  =     4000

 VTST: version 2.03d, (02/18/09)

 CHAIN: initializing optimizer
 
 OPT: Using VASP QUASI-newton optimizer
 CHAIN: Read ICHAIN            0
 CHAIN: Running the NEB
 NEB:          SPRING     -5.000000
 NEB:          LCLIMB      T
 NEB:     LTANGENTOLD      F
 NEB:           LDNEB      F
 NEB:        LDNEBORG      F
 NEB:          EFIRST      0.000000
 NEB:           ELAST      0.000000
 
 POSCAR: POSCAR_00:FCC Al endpoint 1             
  positions in direct lattice
  No initial velocities read in
 
 POSCAR: POSCAR_04:FCC Al endpoint 1             
  positions in direct lattice
  No initial velocities read in
 


--------------------------------------------------------------------------------------------------------


 ion  position               nearest neighbor table
   1  0.004  0.004  0.500-  16 2.81  17 2.81  24 2.81  25 2.81  20 2.82  21 2.82  26 2.82  27 2.82
                            15 2.82  13 2.83  11 2.83   9 2.83
   2  0.000  0.508  0.000-  14 2.78  26 2.81  27 2.81  22 2.81  23 2.81  12 2.82  10 2.83  24 2.87
                            25 2.87  18 2.87  19 2.87   8 3.19
   3  0.004  0.504  0.500-  24 2.77  25 2.77  26 2.78  27 2.78  18 2.81  19 2.81  22 2.82  23 2.82
                            15 2.82  13 2.82  11 2.82   9 2.83
   4  0.508  0.000  0.000-  14 2.78  20 2.81  21 2.81  30 2.81  31 2.81  10 2.82  12 2.83  16 2.87
                            17 2.87  28 2.87  29 2.87   8 3.19
   5  0.504  0.004  0.500-  16 2.77  17 2.77  20 2.78  21 2.78  28 2.81  29 2.81  15 2.82  30 2.82
                            31 2.82  11 2.82  13 2.82   9 2.83
   6  0.508  0.508  0.000-  14 2.74  12 2.78  10 2.78  22 2.81  23 2.81  30 2.81  31 2.81  28 2.87
                            29 2.87  18 2.87  19 2.87
   7  0.504  0.504  0.500-  18 2.80  19 2.80  28 2.80  29 2.80  23 2.82  15 2.82  22 2.82  30 2.82
                            31 2.82  13 2.82  11 2.82   9 2.82
   8  0.129  0.129  0.000-  16 2.52  17 2.52  24 2.52  25 2.52   2 3.19   4 3.19  10 3.19  12 3.19

   9  0.254  0.254  0.500-  16 2.81  17 2.81  24 2.81  25 2.81  18 2.82  19 2.82  28 2.82  29 2.82
                             7 2.82   5 2.83   3 2.83   1 2.83
  10  0.258  0.750  0.000-   6 2.78  18 2.81  19 2.81  30 2.81  31 2.81   4 2.82   2 2.83  16 2.87
                            17 2.87  26 2.87  27 2.87   8 3.19
  11  0.254  0.754  0.500-  16 2.77  17 2.77  18 2.78  19 2.78  26 2.81  27 2.81   7 2.82  30 2.82
                            31 2.82   5 2.82   3 2.82   1 2.83
  12  0.750  0.258  0.000-   6 2.78  28 2.81  29 2.81  22 2.81  23 2.81   2 2.82   4 2.83  24 2.87
                            25 2.87  20 2.87  21 2.87   8 3.19
  13  0.754  0.254  0.500-  24 2.77  25 2.77  28 2.78  29 2.78  20 2.81  21 2.81  22 2.82  23 2.82
                             7 2.82   3 2.82   5 2.82   1 2.83
  14  0.750  0.750  0.000-   6 2.74   4 2.78   2 2.78  22 2.81  23 2.81  30 2.81  31 2.81  26 2.87
                            27 2.87  20 2.87  21 2.87
  15  0.754  0.754  0.500-  20 2.80  21 2.80  26 2.80  27 2.80  23 2.82   7 2.82  22 2.82  30 2.82
                            31 2.82   5 2.82   3 2.82   1 2.82
  16  0.258  0.000  0.257-   8 2.52   5 2.77  11 2.77  30 2.79   1 2.81   9 2.81  28 2.85  26 2.85
                             4 2.87  10 2.87  24 2.91
  17  0.258  0.000  0.743-   8 2.52   5 2.77  11 2.77  31 2.79   1 2.81   9 2.81  29 2.85  27 2.85
                             4 2.87  10 2.87  25 2.91
  18  0.254  0.508  0.254-  11 2.78  26 2.79   7 2.80  30 2.80   3 2.81  10 2.81   9 2.82  24 2.85
                            28 2.86   6 2.87   2 2.87
  19  0.254  0.508  0.746-  11 2.78  27 2.79   7 2.80  31 2.80   3 2.81  10 2.81   9 2.82  25 2.85
                            29 2.86   6 2.87   2 2.87
  20  0.750  0.004  0.254-   5 2.78  28 2.79  30 2.80  15 2.80  13 2.81   4 2.81   1 2.82  24 2.85
                            26 2.86  14 2.87  12 2.87
  21  0.750  0.004  0.746-   5 2.78  29 2.79  31 2.80  15 2.80  13 2.81   4 2.81   1 2.82  25 2.85
                            27 2.86  14 2.87  12 2.87
  22  0.754  0.504  0.251-  24 2.79  28 2.80  26 2.80   6 2.81  14 2.81  12 2.81   2 2.81  15 2.82
                             7 2.82  30 2.82  13 2.82   3 2.82
  23  0.754  0.504  0.749-  25 2.79  29 2.80  27 2.80   6 2.81  14 2.81  12 2.81   2 2.81  15 2.82
                             7 2.82  31 2.82  13 2.82   3 2.82
  24  0.000  0.258  0.257-   8 2.52   3 2.77  13 2.77  22 2.79   1 2.81   9 2.81  18 2.85  20 2.85
                             2 2.87  12 2.87  16 2.91
  25  0.000  0.258  0.743-   8 2.52   3 2.77  13 2.77  23 2.79   1 2.81   9 2.81  19 2.85  21 2.85
                             2 2.87  12 2.87  17 2.91
  26  0.004  0.750  0.254-   3 2.78  18 2.79  22 2.80  15 2.80  11 2.81   2 2.81   1 2.82  16 2.85
                            20 2.86  14 2.87  10 2.87
  27  0.004  0.750  0.746-   3 2.78  19 2.79  23 2.80  15 2.80  11 2.81   2 2.81   1 2.82  17 2.85
                            21 2.86  14 2.87  10 2.87
  28  0.508  0.254  0.254-  13 2.78  20 2.79   7 2.80  22 2.80   5 2.81  12 2.81   9 2.82  16 2.85
                            18 2.86   6 2.87   4 2.87
  29  0.508  0.254  0.746-  13 2.78  21 2.79   7 2.80  23 2.80   5 2.81  12 2.81   9 2.82  17 2.85
                            19 2.86   6 2.87   4 2.87
  30  0.504  0.754  0.251-  16 2.79  18 2.80  20 2.80   6 2.81  14 2.81  10 2.81   4 2.81  15 2.82
                             7 2.82  22 2.82  11 2.82   5 2.82
  31  0.504  0.754  0.749-  17 2.79  19 2.80  21 2.80   6 2.81  14 2.81  10 2.81   4 2.81  15 2.82
                             7 2.82  23 2.82  11 2.82   5 2.82
 
  LATTYP: Found a simple cubic cell.
 ALAT       =     7.9894616391
  
  Lattice vectors:
  
 A1 = (   7.9894616391,   0.0000000000,   0.0000000000)
 A2 = (   0.0000000000,   7.9894616391,   0.0000000000)
 A3 = (   0.0000000000,   0.0000000000,   7.9894616391)
 Subroutine PRICEL returns:
 Original cell was already a primitive cell.
 

Analysis of symmetry for initial positions (statically):

 Routine SETGRP: Setting up the symmetry group for a 
 simple cubic supercell.


 Subroutine GETGRP returns: Found  8 space group operations
 (whereof  4 operations were pure point group operations)
 out of a pool of 48 trial point group operations.


The static configuration has the point symmetry C_2v.
 The point group associated with its full space group is D_2h.

Analysis of symmetry for dynamics (positions and initial velocities):

 Subroutine DYNSYM returns: Found  8 space group operations
 (whereof  4 operations were pure point group operations)
 out of a pool of  8 trial space group operations
 (whereof  4 operations were pure point group operations)
 and found also     1 'primitive' translations


The dynamic configuration has the point symmetry C_2v.
 The point group associated with its full space group is D_2h.
 
 
 KPOINTS: FCC test                                

Automatic generation of k-mesh.
 
 Subroutine IBZKPT returns following result:
 ===========================================
 
 Found      1 irreducible k-points:
 
 Following reciprocal coordinates:
            Coordinates               Weight
  0.000000  0.000000  0.000000      1.000000
 
 Following cartesian coordinates:
            Coordinates               Weight
  0.000000  0.000000  0.000000      1.000000
 


--------------------------------------------------------------------------------------------------------




 Dimension of arrays:
   k-points           NKPTS =      1   k-points in BZ     NKDIM =      1   number of bands    NBANDS=     62
   number of dos      NEDOS =    301   number of ions     NIONS =     31
   non local maximal  LDIM  =      4   non local SUM 2l+1 LMDIM =      8
   total plane-waves  NPLWV = 125000
   max r-space proj   IRMAX =      1   max aug-charges    IRDMAX=   9738
   dimension x,y,z NGX =    50 NGY =   50 NGZ =   50
   dimension x,y,z NGXF=   100 NGYF=  100 NGZF=  100
   support grid    NGXF=   100 NGYF=  100 NGZF=  100
   ions per type =              31
 NGX,Y,Z   is equivalent  to a cutoff of  10.40, 10.40, 10.40 a.u.
 NGXF,Y,Z  is equivalent  to a cutoff of  20.81, 20.81, 20.81 a.u.


 I would recommend the setting:
   dimension x,y,z NGX =    49 NGY =   49 NGZ =   49
 SYSTEM =  unknown system                          
 POSCAR =  POSCAR_02:FCC Al endpoint 1             

 Startparameter for this run:
   NWRITE =      2    write-flag & timer
   PREC   = accura    medium, high low
   ISTART =      0    job   : 0-new  1-cont  2-samecut
   ICHARG =      2    charge: 1-file 2-atom 10-const
   ISPIN  =      1    spin polarized calculation?
   LNONCOLLINEAR =      F non collinear calculations
   LSORBIT =      F    spin-orbit coupling
   INIWAV =      1    electr: 0-lowe 1-rand  2-diag
   LASPH  =      F    aspherical Exc in radial PAW
   METAGGA=      F    non-selfconsistent MetaGGA calc.

 Electronic Relaxation 1
   ENCUT  =  360.0 eV  26.46 Ry    5.14 a.u.  12.36 12.36 12.36*2*pi/ulx,y,z
   ENINI  =  360.0     initial cutoff
   ENAUG  =  291.1 eV  augmentation charge cutoff
   NELM   =     60;   NELMIN=  2; NELMDL= -5     # of ELM steps 
   EDIFF  = 0.1E-03   stopping-criterion for ELM
   LREAL  =      F    real-space projection
   LCOMPAT=      F    compatible to vasp.4.4
   LREAL_COMPAT= F    compatible to vasp.4.5.1-3
   GGA_COMPAT  = T    GGA compatible to vasp.4.4-vasp.4.6
   LMAXPAW     = -100 max onsite density
   LMAXMIX     =    2 max onsite mixed and CHGCAR
   VOSKOWN=      0    Vosko Wilk Nusair interpolation
   ROPT   =    0.00000
 Ionic relaxation
   EDIFFG = 0.1E-02   stopping-criterion for IOM
   NSW    =    191    number of steps for IOM
   NBLOCK =      1;   KBLOCK =    191    inner block; outer block 
   IBRION =      1    ionic relax: 0-MD 1-quasi-New 2-CG
   NFREE  =      0    steps in history (QN), initial steepest desc. (CG)
   ISIF   =      2    stress and relaxation
   IWAVPR =     11    prediction:  0-non 1-charg 2-wave 3-comb
   ISYM   =      2    0-nonsym 1-usesym 2-fastsym
   LCORR  =      T    Harris-Foulkes like correction to forces

   POTIM  = 0.5000    time-step for ionic-motion
   TEIN   =    0.0    initial temperature
   TEBEG  =    0.0;   TEEND  =   0.0 temperature during run
   SMASS  =  -3.00    Nose mass-parameter (am)
   estimated Nose-frequenzy (Omega)   =  0.10E-29 period in steps =****** mass=  -0.146E-26a.u.
   NPACO  =    256;   APACO  = 16.0  distance and # of slots for P.C.
   PSTRESS=    0.0 pullay stress

  Mass of Ions in am
   POMASS =  26.98
  Ionic Valenz
   ZVAL   =   3.00
  Atomic Wigner-Seitz radii
   RWIGS  =  -1.00
   NELECT =      93.0000    total number of electrons
   NUPDOWN=      -1.0000    fix difference up-down

 DOS related values:
   EMIN   =  10.00;   EMAX   =-10.00  energy-range for DOS
   EFERMI =   0.00
   ISMEAR =     1;   SIGMA  =   0.20  broadening in eV -4-tet -1-fermi 0-gaus

 Electronic relaxation 2 (details)
   IALGO  =     38    algorithm
   LDIAG  =      T    sub-space diagonalisation
   IMIX   =      4    mixing-type and parameters
     AMIX     =   0.40;   BMIX     =  1.00
     AMIX_MAG =   1.60;   BMIX_MAG =  1.00
     AMIN     =   0.10
     WC   =   100.;   INIMIX=   1;  MIXPRE=   1

 Intra band minimization:
   WEIMIN = 0.0010     energy-eigenvalue tresh-hold
   EBREAK =  0.40E-06  absolut break condition
   DEPER  =   0.30     relativ break condition  

   TIME   =   0.40     timestep for ELM

  volume/ion in A,a.u.               =      16.45       111.02
  Fermi-wavevector in a.u.,A,eV,Ry     =   0.928364  1.754354 11.726314  0.861860
  Thomas-Fermi vector in A             =   2.054533
 
 Write flags
   LWAVE  =      F    write WAVECAR
   LCHARG =      F    write CHGCAR
   LVTOT  =      F    write LOCPOT, local potential
   LELF   =      F    write electronic localiz. function (ELF)
   LORBIT =      0    0 simple, 1 ext, 2 COOP (PROOUT)


 Dipole corrections
   LMONO  =      F    monopole corrections only (constant potential shift)
   LDIPOL =      F    correct potential (dipole corrections)
   IDIPOL =      0    1-x, 2-y, 3-z, 4-all directions 
   EPSILON=  1.0000000 bulk dielectric constant

 Exchange correlation treatment:
   GGA     =    --    GGA type
   LEXCH   =     8    internal setting for exchange type
   VOSKOWN=      0    Vosko Wilk Nusair interpolation
   LHFCALC =     F    Hartree Fock is set to
   LHFONE  =     F    Hartree Fock one center treatment
   AEXX    =    0.0000 exact exchange contribution

 Linear response parameters
   LEPSILON=     F    determine dielectric tensor
   LRPA    =     F    only Hartree local field effects (RPA)
   LNABLA  =     F    use nabla operator in PAW spheres
   LVEL    =     F    velocity operator in full k-point grid
   LINTERFAST=   F  fast interpolation
   KINTER  =     0    interpolate to denser k-point grid
   CSHIFT  =0.1000    complex shift for real part using Kramers Kronig
   OMEGAMAX=  -1.0    maximum frequency

 Orbital magnetization related:
   ORBITALMAG=     F  switch on orbital magnetization
   LCHIMAG   =     F  perturbation theory with respect to B field



--------------------------------------------------------------------------------------------------------


 quasi-Newton-method for relaxation of ions
 charge density and potential will be updated during run
 non-spin polarized calculation
 Variant of blocked Davidson
 Davidson routine will perform the subspace rotation
 perform sub-space diagonalisation
    after iterative eigenvector-optimisation
 modified Broyden-mixing scheme, WC =      100.0
 initial mixing is a Kerker type mixing with AMIX =  0.4000 and BMIX =      1.0000
 Hartree-type preconditioning will be used
 using additional bands           15
 reciprocal scheme for non local part
 use partial core corrections
 calculate Harris-corrections to forces 
   (improved forces if not selfconsistent)
 use gradient corrections 
 use of overlap-Matrix (Vanderbilt PP)
 Methfessel and Paxton  Order N= 1 SIGMA  =   0.20


--------------------------------------------------------------------------------------------------------


  energy-cutoff  :      360.00
  volume of cell :      509.98
      direct lattice vectors                 reciprocal lattice vectors
     7.989461639  0.000000000  0.000000000     0.125164879  0.000000000  0.000000000
     0.000000000  7.989461639  0.000000000     0.000000000  0.125164879  0.000000000
     0.000000000  0.000000000  7.989461639     0.000000000  0.000000000  0.125164879

  length of vectors
     7.989461639  7.989461639  7.989461639     0.125164879  0.125164879  0.125164879


 
 k-points in units of 2pi/SCALE and weight: FCC test                                
   0.00000000  0.00000000  0.00000000       1.000
 
 k-points in reciprocal lattice and weights: FCC test                                
   0.00000000  0.00000000  0.00000000       1.000
 
 position of ions in fractional coordinates (direct lattice) 
   0.00360809  0.00360809  0.50000000
   0.00043315  0.50763136  0.00000000
   0.00360809  0.50445643  0.50000000
   0.50763136  0.00043315  0.00000000
   0.50445643  0.00360809  0.50000000
   0.50763136  0.50763136  0.00000000
   0.50445643  0.50445643  0.50000000
   0.12903229  0.12903229  0.00000000
   0.25445651  0.25445651  0.50000000
   0.25763140  0.75043312  0.00000000
   0.25445651  0.75360800  0.50000000
   0.75043312  0.25763140  0.00000000
   0.75360800  0.25445651  0.50000000
   0.75043312  0.75043312  0.00000000
   0.75360800  0.75360800  0.50000000
   0.25763140  0.00043315  0.25719824
   0.25763140  0.00043315  0.74280176
   0.25445651  0.50763136  0.25402336
   0.25445651  0.50763136  0.74597664
   0.75043312  0.00360809  0.25402331
   0.75043312  0.00360809  0.74597669
   0.75360800  0.50445643  0.25084843
   0.75360800  0.50445643  0.74915157
   0.00043315  0.25763140  0.25719824
   0.00043315  0.25763140  0.74280176
   0.00360809  0.75043312  0.25402331
   0.00360809  0.75043312  0.74597669
   0.50763136  0.25445651  0.25402336
   0.50763136  0.25445651  0.74597664
   0.50445643  0.75360800  0.25084843
   0.50445643  0.75360800  0.74915157
 
 position of ions in cartesian coordinates  (Angst):
   0.02882668  0.02882668  3.99473082
   0.00346065  4.05570131  0.00000000
   0.02882668  4.03033528  3.99473082
   4.05570131  0.00346065  0.00000000
   4.03033528  0.02882668  3.99473082
   4.05570131  4.05570131  0.00000000
   4.03033528  4.03033528  3.99473082
   1.03089853  1.03089853  0.00000000
   2.03297055  2.03297055  3.99473082
   2.05833616  5.99555662  0.00000000
   2.03297055  6.02092223  3.99473082
   5.99555662  2.05833616  0.00000000
   6.02092223  2.03297055  3.99473082
   5.99555662  5.99555662  0.00000000
   6.02092223  6.02092223  3.99473082
   2.05833616  0.00346065  2.05487551
   2.05833616  0.00346065  5.93458613
   2.03297055  4.05570131  2.02950990
   2.03297055  4.05570131  5.95995174
   5.99555662  0.02882668  2.02950948
   5.99555662  0.02882668  5.95995216
   6.02092223  4.03033528  2.00414387
   6.02092223  4.03033528  5.98531777
   0.00346065  2.05833616  2.05487551
   0.00346065  2.05833616  5.93458613
   0.02882668  5.99555662  2.02950948
   0.02882668  5.99555662  5.95995216
   4.05570131  2.03297055  2.02950990
   4.05570131  2.03297055  5.95995174
   4.03033528  6.02092223  2.00414387
   4.03033528  6.02092223  5.98531777
 


--------------------------------------------------------------------------------------------------------


 k-point  1 :  0.00000.00000.0000  plane waves:    7881

 maximum and minimum number of plane-waves per node :    3953   3928

 maximum number of plane-waves:    7881
 maximal index in each direction: 
   IXMAX= 12   IYMAX= 12   IZMAX= 12
   IXMIN=-12   IYMIN=-12   IZMIN=-12

 NGX is ok and might be reduce to  50
 NGY is ok and might be reduce to  50
 NGZ is ok and might be reduce to  50

 parallel 3D FFT for wavefunctions:
    minimum data exchange during FFTs selected (reduces bandwidth)
 parallel 3D FFT for charge:
    minimum data exchange during FFTs selected (reduces bandwidth)


 total amount of memory used by VASP on root node  90106. kBytes
========================================================================

   base      :    30000. kBytes
   nonl-proj :     2213. kBytes
   fftplans  :    18956. kBytes
   grid      :    34840. kBytes
   one-center:       49. kBytes
   wavefun   :     4048. kBytes
 
 Broyden mixing: mesh for mixing (old mesh)
   NGX = 25   NGY = 25   NGZ = 25
  (NGX  =100   NGY  =100   NGZ  =100)
  gives a total of  15625 points

 initial charge density was supplied:
 charge density of overlapping atoms calculated
 number of electron   93.0000000 magnetization 
 keeping initial charge density in first step


--------------------------------------------------------------------------------------------------------


 Maximum index for augmentation-charges         4648 (set IRDMAX)


--------------------------------------------------------------------------------------------------------


 First call to EWALD:  gamma=   0.222
 Maximum number of real-space cells 3x 3x 3
 Maximum number of reciprocal cells 3x 3x 3

    FEWALD:  cpu time    0.01: real time    0.02
   RESPFUN:  cpu time    0.00: real time    0.00


----------------------------------------- Iteration    1(   1)  ---------------------------------------


    POTLOK:  cpu time    1.19: real time    1.20
    SETDIJ:  cpu time    0.07: real time    0.07
     EDDAV:  cpu time    3.87: real time    3.87
       DOS:  cpu time    0.00: real time    0.00
    --------------------------------------------
      LOOP:  cpu time    5.13: real time    5.14

 eigenvalue-minimisations  :   124
 total energy-change (2. order) : 0.1062080E+03  (-0.2626730E+04)
 number of electron   93.0000000 magnetization 
 augmentation part    93.0000000 magnetization 

 Free energy of the ion-electron system (eV)
  ---------------------------------------------------
  alpha Z        PSCENC =        -6.32931246
  Ewald energy   TEWEN  =     -2252.09975492
  -1/2 Hartree   DENC   =       -19.84958547
  -exchange  EXHF       =         0.00000000
  -V(xc)+E(xc)   XCENC  =      -812.74276054
  PAW double counting   =      1102.18190231     -111.56847430
  entropy T*S    EENTRO =        -0.04823320
  eigenvalues    EBANDS =       546.98299188
  atomic energy  EATOM  =      1659.68123870
  ---------------------------------------------------
  free energy    TOTEN  =       106.20801201 eV

  energy without entropy =      106.25624521  energy(sigma->0) =      106.22408974


--------------------------------------------------------------------------------------------------------




----------------------------------------- Iteration    1(   2)  ---------------------------------------


     EDDAV:  cpu time    4.25: real time    4.25
       DOS:  cpu time    0.00: real time    0.00
    --------------------------------------------
      LOOP:  cpu time    4.25: real time    4.25

 eigenvalue-minimisations  :   144
 total energy-change (2. order) :-0.1917678E+03  (-0.1773983E+03)
 number of electron   93.0000000 magnetization 
 augmentation part    93.0000000 magnetization 

 Free energy of the ion-electron system (eV)
  ---------------------------------------------------
  alpha Z        PSCENC =        -6.32931246
  Ewald energy   TEWEN  =     -2252.09975492
  -1/2 Hartree   DENC   =       -19.84958547
  -exchange  EXHF       =         0.00000000
  -V(xc)+E(xc)   XCENC  =      -812.74276054
  PAW double counting   =      1102.18190231     -111.56847430
  entropy T*S    EENTRO =         0.01246245
  eigenvalues    EBANDS =       355.15446663
  atomic energy  EATOM  =      1659.68123870
  ---------------------------------------------------
  free energy    TOTEN  =       -85.55981759 eV

  energy without entropy =      -85.57228004  energy(sigma->0) =      -85.56397174


--------------------------------------------------------------------------------------------------------




----------------------------------------- Iteration    1(   3)  ---------------------------------------


     EDDAV:  cpu time    4.59: real time    4.59
       DOS:  cpu time    0.00: real time    0.00
    --------------------------------------------
      LOOP:  cpu time    4.59: real time    4.59

 eigenvalue-minimisations  :   160
 total energy-change (2. order) :-0.1487158E+02  (-0.1418700E+02)
 number of electron   93.0000000 magnetization 
 augmentation part    93.0000000 magnetization 

 Free energy of the ion-electron system (eV)
  ---------------------------------------------------
  alpha Z        PSCENC =        -6.32931246
  Ewald energy   TEWEN  =     -2252.09975492
  -1/2 Hartree   DENC   =       -19.84958547
  -exchange  EXHF       =         0.00000000
  -V(xc)+E(xc)   XCENC  =      -812.74276054
  PAW double counting   =      1102.18190231     -111.56847430
  entropy T*S    EENTRO =        -0.01746207
  eigenvalues    EBANDS =       340.31281030
  atomic energy  EATOM  =      1659.68123870
  ---------------------------------------------------
  free energy    TOTEN  =      -100.43139844 eV

  energy without entropy =     -100.41393637  energy(sigma->0) =     -100.42557775


--------------------------------------------------------------------------------------------------------




----------------------------------------- Iteration    1(   4)  ---------------------------------------


     EDDAV:  cpu time    4.77: real time    4.77
       DOS:  cpu time    0.00: real time    0.00
    --------------------------------------------
      LOOP:  cpu time    4.77: real time    4.77

 eigenvalue-minimisations  :   168
 total energy-change (2. order) :-0.5163812E+00  (-0.5100935E+00)
 number of electron   93.0000000 magnetization 
 augmentation part    93.0000000 magnetization 

 Free energy of the ion-electron system (eV)
  ---------------------------------------------------
  alpha Z        PSCENC =        -6.32931246
  Ewald energy   TEWEN  =     -2252.09975492
  -1/2 Hartree   DENC   =       -19.84958547
  -exchange  EXHF       =         0.00000000
  -V(xc)+E(xc)   XCENC  =      -812.74276054
  PAW double counting   =      1102.18190231     -111.56847430
  entropy T*S    EENTRO =        -0.02156083
  eigenvalues    EBANDS =       339.80052786
  atomic energy  EATOM  =      1659.68123870
  ---------------------------------------------------
  free energy    TOTEN  =      -100.94777964 eV

  energy without entropy =     -100.92621881  energy(sigma->0) =     -100.94059270


--------------------------------------------------------------------------------------------------------




----------------------------------------- Iteration    1(   5)  ---------------------------------------


     EDDAV:  cpu time    4.61: real time    4.61
       DOS:  cpu time    0.00: real time    0.00
    CHARGE:  cpu time    0.51: real time    0.51
    MIXING:  cpu time    0.03: real time    0.03
    --------------------------------------------
      LOOP:  cpu time    5.15: real time    5.15

 eigenvalue-minimisations  :   160
 total energy-change (2. order) :-0.6339047E-02  (-0.6318596E-02)
 number of electron   93.0000000 magnetization 
 augmentation part    -0.9537163 magnetization 

 Broyden mixing:
  rms(total) = 0.68537E+00    rms(broyden)= 0.68537E+00
  rms(prec ) = 0.13250E+01
  weight for this iteration     100.00

 Free energy of the ion-electron system (eV)
  ---------------------------------------------------
  alpha Z        PSCENC =        -6.32931246
  Ewald energy   TEWEN  =     -2252.09975492
  -1/2 Hartree   DENC   =       -19.84958547
  -exchange  EXHF       =         0.00000000
  -V(xc)+E(xc)   XCENC  =      -812.74276054
  PAW double counting   =      1102.18190231     -111.56847430
  entropy T*S    EENTRO =        -0.02154412
  eigenvalues    EBANDS =       339.79417210
  atomic energy  EATOM  =      1659.68123870
  ---------------------------------------------------
  free energy    TOTEN  =      -100.95411869 eV

  energy without entropy =     -100.93257457  energy(sigma->0) =     -100.94693732


--------------------------------------------------------------------------------------------------------




----------------------------------------- Iteration    1(   6)  ---------------------------------------


    POTLOK:  cpu time    1.15: real time    1.15
    SETDIJ:  cpu time    0.07: real time    0.07
     EDDAV:  cpu time    4.81: real time    4.81
       DOS:  cpu time    0.00: real time    0.00
    CHARGE:  cpu time    0.52: real time    0.52
    MIXING:  cpu time    0.03: real time    0.03
    --------------------------------------------
      LOOP:  cpu time    6.58: real time    6.58

 eigenvalue-minimisations  :   168
 total energy-change (2. order) : 0.1397310E+01  (-0.6444005E+00)
 number of electron   93.0000000 magnetization 
 augmentation part    -0.9648162 magnetization 

 Broyden mixing:
  rms(total) = 0.41239E+00    rms(broyden)= 0.41239E+00
  rms(prec ) = 0.68145E+00
  weight for this iteration     100.00

 eigenvalues of (default mixing * dielectric matrix)
  average eigenvalue GAMMA=   1.8416
  1.8416

 Free energy of the ion-electron system (eV)
  ---------------------------------------------------
  alpha Z        PSCENC =        -6.32931246
  Ewald energy   TEWEN  =     -2252.09975492
  -1/2 Hartree   DENC   =       -23.22491010
  -exchange  EXHF       =         0.00000000
  -V(xc)+E(xc)   XCENC  =      -811.35506641
  PAW double counting   =      1103.16684062     -112.68234077
  entropy T*S    EENTRO =         0.01442060
  eigenvalues    EBANDS =       343.27207646
  atomic energy  EATOM  =      1659.68123870
  ---------------------------------------------------
  free energy    TOTEN  =       -99.55680828 eV

  energy without entropy =      -99.57122888  energy(sigma->0) =      -99.56161515


--------------------------------------------------------------------------------------------------------




----------------------------------------- Iteration    1(   7)  ---------------------------------------


    POTLOK:  cpu time    1.12: real time    1.12
    SETDIJ:  cpu time    0.07: real time    0.07
     EDDAV:  cpu time    4.42: real time    4.42
       DOS:  cpu time    0.00: real time    0.00
    CHARGE:  cpu time    0.53: real time    0.53
    MIXING:  cpu time    0.03: real time    0.03
    --------------------------------------------
      LOOP:  cpu time    6.17: real time    6.17

 eigenvalue-minimisations  :   152
 total energy-change (2. order) : 0.2961096E+00  (-0.9659342E-01)
 number of electron   93.0000000 magnetization 
 augmentation part    -0.9745087 magnetization 

 Broyden mixing:
  rms(total) = 0.26136E+00    rms(broyden)= 0.26136E+00
  rms(prec ) = 0.40270E+00
  weight for this iteration     100.00

 eigenvalues of (default mixing * dielectric matrix)
  average eigenvalue GAMMA=   1.6035
  2.4760  0.7310

 Free energy of the ion-electron system (eV)
  ---------------------------------------------------
  alpha Z        PSCENC =        -6.32931246
  Ewald energy   TEWEN  =     -2252.09975492
  -1/2 Hartree   DENC   =       -23.60088973
  -exchange  EXHF       =         0.00000000
  -V(xc)+E(xc)   XCENC  =      -810.44805787
  PAW double counting   =      1103.56429957     -113.16440635
  entropy T*S    EENTRO =        -0.00556423
  eigenvalues    EBANDS =       343.14174864
  atomic energy  EATOM  =      1659.68123870
  ---------------------------------------------------
  free energy    TOTEN  =       -99.26069864 eV

  energy without entropy =      -99.25513441  energy(sigma->0) =      -99.25884390


--------------------------------------------------------------------------------------------------------




----------------------------------------- Iteration    1(   8)  ---------------------------------------


    POTLOK:  cpu time    1.15: real time    1.15
    SETDIJ:  cpu time    0.07: real time    0.07
     EDDAV:  cpu time    4.79: real time    4.80
       DOS:  cpu time    0.00: real time    0.00
    CHARGE:  cpu time    0.52: real time    0.52
    MIXING:  cpu time    0.03: real time    0.03
    --------------------------------------------
      LOOP:  cpu time    6.57: real time    6.57

 eigenvalue-minimisations  :   168
 total energy-change (2. order) : 0.1607214E+00  (-0.3342096E-01)
 number of electron   93.0000000 magnetization 
 augmentation part    -0.9891686 magnetization 

 Broyden mixing:
  rms(total) = 0.68290E-01    rms(broyden)= 0.68290E-01
  rms(prec ) = 0.11612E+00
  weight for this iteration     100.00

 eigenvalues of (default mixing * dielectric matrix)
  average eigenvalue GAMMA=   1.4094
  2.5459  0.9696  0.7127

 Free energy of the ion-electron system (eV)
  ---------------------------------------------------
  alpha Z        PSCENC =        -6.32931246
  Ewald energy   TEWEN  =     -2252.09975492
  -1/2 Hartree   DENC   =       -25.50701189
  -exchange  EXHF       =         0.00000000
  -V(xc)+E(xc)   XCENC  =      -809.03472465
  PAW double counting   =      1104.10166686     -113.83871801
  entropy T*S    EENTRO =        -0.00421330
  eigenvalues    EBANDS =       343.93085244
  atomic energy  EATOM  =      1659.68123870
  ---------------------------------------------------
  free energy    TOTEN  =       -99.09997724 eV

  energy without entropy =      -99.09576394  energy(sigma->0) =      -99.09857280


--------------------------------------------------------------------------------------------------------




----------------------------------------- Iteration    1(   9)  ---------------------------------------


    POTLOK:  cpu time    1.15: real time    1.15
    SETDIJ:  cpu time    0.07: real time    0.07
     EDDAV:  cpu time    4.62: real time    4.63
       DOS:  cpu time    0.00: real time    0.00
    CHARGE:  cpu time    0.53: real time    0.53
    MIXING:  cpu time    0.03: real time    0.03
    --------------------------------------------
      LOOP:  cpu time    6.40: real time    6.41

 eigenvalue-minimisations  :   160
 total energy-change (2. order) : 0.1260525E-01  (-0.3958884E-02)
 number of electron   93.0000000 magnetization 
 augmentation part    -0.9941336 magnetization 

 Broyden mixing:
  rms(total) = 0.21539E-01    rms(broyden)= 0.21539E-01
  rms(prec ) = 0.40406E-01
  weight for this iteration     100.00

 eigenvalues of (default mixing * dielectric matrix)
  average eigenvalue GAMMA=   1.3955
  2.5753  1.4795  0.6940  0.8331

 Free energy of the ion-electron system (eV)
  ---------------------------------------------------
  alpha Z        PSCENC =        -6.32931246
  Ewald energy   TEWEN  =     -2252.09975492
  -1/2 Hartree   DENC   =       -25.96410667
  -exchange  EXHF       =         0.00000000
  -V(xc)+E(xc)   XCENC  =      -808.62541864
  PAW double counting   =      1104.37209956     -114.15931441
  entropy T*S    EENTRO =        -0.00350788
  eigenvalues    EBANDS =       344.04070475
  atomic energy  EATOM  =      1659.68123870
  ---------------------------------------------------
  free energy    TOTEN  =       -99.08737198 eV

  energy without entropy =      -99.08386410  energy(sigma->0) =      -99.08620269


--------------------------------------------------------------------------------------------------------




----------------------------------------- Iteration    1(  10)  ---------------------------------------


    POTLOK:  cpu time    1.14: real time    1.14
    SETDIJ:  cpu time    0.07: real time    0.07
     EDDAV:  cpu time    4.78: real time    4.78
       DOS:  cpu time    0.00: real time    0.00
    CHARGE:  cpu time    0.52: real time    0.52
    MIXING:  cpu time    0.03: real time    0.03
    --------------------------------------------
      LOOP:  cpu time    6.54: real time    6.54

 eigenvalue-minimisations  :   168
 total energy-change (2. order) : 0.1711374E-02  (-0.5453610E-03)
 number of electron   93.0000000 magnetization 
 augmentation part    -0.9959865 magnetization 

 Broyden mixing:
  rms(total) = 0.86852E-02    rms(broyden)= 0.86852E-02
  rms(prec ) = 0.16080E-01
  weight for this iteration     100.00

 eigenvalues of (default mixing * dielectric matrix)
  average eigenvalue GAMMA=   1.3622
  2.6126  1.7716  0.9142  0.8426  0.6701

 Free energy of the ion-electron system (eV)
  ---------------------------------------------------
  alpha Z        PSCENC =        -6.32931246
  Ewald energy   TEWEN  =     -2252.09975492
  -1/2 Hartree   DENC   =       -25.99424112
  -exchange  EXHF       =         0.00000000
  -V(xc)+E(xc)   XCENC  =      -808.52144827
  PAW double counting   =      1104.57350108     -114.38352672
  entropy T*S    EENTRO =        -0.00260301
  eigenvalues    EBANDS =       343.99048610
  atomic energy  EATOM  =      1659.68123870
  ---------------------------------------------------
  free energy    TOTEN  =       -99.08566061 eV

  energy without entropy =      -99.08305760  energy(sigma->0) =      -99.08479294


--------------------------------------------------------------------------------------------------------




----------------------------------------- Iteration    1(  11)  ---------------------------------------


    POTLOK:  cpu time    1.15: real time    1.15
    SETDIJ:  cpu time    0.07: real time    0.07
     EDDAV:  cpu time    4.65: real time    4.65
       DOS:  cpu time    0.00: real time    0.00
    CHARGE:  cpu time    0.53: real time    0.53
    MIXING:  cpu time    0.03: real time    0.03
    --------------------------------------------
      LOOP:  cpu time    6.42: real time    6.43

 eigenvalue-minimisations  :   160
 total energy-change (2. order) : 0.2300378E-03  (-0.1208180E-03)
 number of electron   93.0000000 magnetization 
 augmentation part    -0.9968474 magnetization 

 Broyden mixing:
  rms(total) = 0.35241E-02    rms(broyden)= 0.35241E-02
  rms(prec ) = 0.56414E-02
  weight for this iteration     100.00

 eigenvalues of (default mixing * dielectric matrix)
  average eigenvalue GAMMA=   1.3519
  2.6331  1.9916  1.2422  0.7995  0.7995  0.6452

 Free energy of the ion-electron system (eV)
  ---------------------------------------------------
  alpha Z        PSCENC =        -6.32931246
  Ewald energy   TEWEN  =     -2252.09975492
  -1/2 Hartree   DENC   =       -25.98737395
  -exchange  EXHF       =         0.00000000
  -V(xc)+E(xc)   XCENC  =      -808.48471183
  PAW double counting   =      1104.69967494     -114.52239529
  entropy T*S    EENTRO =        -0.00242965
  eigenvalues    EBANDS =       343.95963390
  atomic energy  EATOM  =      1659.68123870
  ---------------------------------------------------
  free energy    TOTEN  =       -99.08543057 eV

  energy without entropy =      -99.08300092  energy(sigma->0) =      -99.08462069


--------------------------------------------------------------------------------------------------------




----------------------------------------- Iteration    1(  12)  ---------------------------------------


    POTLOK:  cpu time    1.15: real time    1.15
    SETDIJ:  cpu time    0.07: real time    0.07
     EDDAV:  cpu time    3.02: real time    3.02
       DOS:  cpu time    0.00: real time    0.00
    --------------------------------------------
      LOOP:  cpu time    4.24: real time    4.24

 eigenvalue-minimisations  :    88
 total energy-change (2. order) : 0.4372816E-05  (-0.1366231E-04)
 number of electron   93.0000000 magnetization 
 augmentation part    -0.9968474 magnetization 

 Free energy of the ion-electron system (eV)
  ---------------------------------------------------
  alpha Z        PSCENC =        -6.32931246
  Ewald energy   TEWEN  =     -2252.09975492
  -1/2 Hartree   DENC   =       -25.99359928
  -exchange  EXHF       =         0.00000000
  -V(xc)+E(xc)   XCENC  =      -808.46918516
  PAW double counting   =      1104.77165846     -114.60196791
  entropy T*S    EENTRO =        -0.00266887
  eigenvalues    EBANDS =       343.95816524
  atomic energy  EATOM  =      1659.68123870
  ---------------------------------------------------
  free energy    TOTEN  =       -99.08542620 eV

  energy without entropy =      -99.08275733  energy(sigma->0) =      -99.08453658


--------------------------------------------------------------------------------------------------------




 average (electrostatic) potential at core
  the test charge radii are     1.0406
  (the norm of the test charge is              1.0000)
       1 -72.7036       2 -72.8588       3 -72.3432       4 -72.8588       5 -72.3432
       6 -72.3887       7 -72.6617       8 -72.6527       9 -72.7037      10 -72.8588
      11 -72.3432      12 -72.8588      13 -72.3432      14 -72.3887      15 -72.6616
      16 -72.6107      17 -72.6107      18 -72.7528      19 -72.7528      20 -72.7528
      21 -72.7528      22 -72.6327      23 -72.6327      24 -72.6107      25 -72.6107
      26 -72.7528      27 -72.7528      28 -72.7528      29 -72.7528      30 -72.6327
      31 -72.6327
 
 
 
 E-fermi :   8.1800     XC(G=0): -10.1711     alpha+bet :-14.9207
   add alpha+bet to get absolut eigen values

 k-point   1 :       0.0000    0.0000    0.0000
  band No.  band energies     occupation 
      1      -3.2341      2.00000
      2      -1.1178      2.00000
      3      -1.0390      2.00000
      4      -1.0249      2.00000
      5      -0.9963      2.00000
      6      -0.7215      2.00000
      7      -0.7061      2.00000
      8       1.1118      2.00000
      9       1.1428      2.00000
     10       1.1655      2.00000
     11       1.1874      2.00000
     12       1.2156      2.00000
     13       1.2614      2.00000
     14       1.2985      2.00000
     15       1.3258      2.00000
     16       1.4535      2.00000
     17       1.4953      2.00000
     18       1.6310      2.00000
     19       2.2253      2.00000
     20       3.2667      2.00000
     21       3.3592      2.00000
     22       3.4580      2.00000
     23       3.5419      2.00000
     24       3.6484      2.00000
     25       3.6547      2.00000
     26       4.0511      2.00000
     27       4.2020      2.00000
     28       5.1796      2.00000
     29       5.2064      2.00000
     30       5.2507      2.00000
     31       6.4279      2.00000
     32       6.5953      2.00000
     33       6.7024      2.00000
     34       6.9817      2.00000
     35       7.0435      2.00000
     36       7.0511      2.00000
     37       7.1322      2.00000
     38       7.1494      2.00000
     39       7.2403      2.00000
     40       7.2900      2.00000
     41       7.3490      2.00000
     42       7.4679      2.00001
     43       7.6255      2.00063
     44       7.6406      2.00092
     45       7.7042      2.00391
     46       7.9879      2.04096
     47       8.1995      0.83535
     48       8.3210      0.07681
     49       8.3257      0.06111
     50       8.3296      0.04899
     51       8.4431     -0.06868
     52       9.0422      0.00000
     53       9.1192      0.00000
     54       9.2199      0.00000
     55       9.2370      0.00000
     56       9.2790      0.00000
     57       9.2946      0.00000
     58       9.3796      0.00000
     59       9.4031      0.00000
     60       9.4981      0.00000
     61       9.5027      0.00000
     62       9.6530      0.00000


--------------------------------------------------------------------------------------------------------


 soft charge-density along one line, spin component           1
         0         1         2         3         4         5         6         7         8         9
 total charge-density along one line
 
 pseudopotential strength for first ion, spin component:           1
  8.447  -0.006   0.000   0.000   0.000   0.000   0.000   0.000
 -0.006   0.000   0.000   0.000   0.000   0.000   0.000   0.000
  0.000   0.000   1.988   0.000   0.000  -0.026   0.000   0.000
  0.000   0.000   0.000   1.988   0.000   0.000  -0.026   0.000
  0.000   0.000   0.000   0.000   1.988   0.000   0.000  -0.026
  0.000   0.000  -0.026   0.000   0.000  -0.012   0.000   0.000
  0.000   0.000   0.000  -0.026   0.000   0.000  -0.012   0.000
  0.000   0.000   0.000   0.000  -0.026   0.000   0.000  -0.012
 total augmentation occupancy for first ion, spin component:           1
  1.146  -0.582  -0.007   0.000  -0.007   0.002   0.000   0.002
 -0.582   0.502  -0.006   0.000  -0.006   0.000   0.000   0.000
 -0.007  -0.006   0.852   0.000  -0.011  -0.167   0.000   0.001
  0.000   0.000   0.000   0.804   0.000   0.000  -0.162   0.000
 -0.007  -0.006  -0.011   0.000   0.852   0.001   0.000  -0.167
  0.002   0.000  -0.167   0.000   0.001   0.041   0.000   0.000
  0.000   0.000   0.000  -0.162   0.000   0.000   0.040   0.000
  0.002   0.000   0.001   0.000  -0.167   0.000   0.000   0.041


------------------------ aborting loop because EDIFF is reached ----------------------------------------




--------------------------------------------------------------------------------------------------------



  FREE ENERGIE OF THE ION-ELECTRON SYSTEM (eV)
  ---------------------------------------------------
  free  energy   TOTEN  =       -99.085426 eV

  energy  without entropy=      -99.082757  energy(sigma->0) =      -99.084537
 
    CHARGE:  cpu time    0.50: real time    0.51
    FORLOC:  cpu time    0.26: real time    0.26
    FORNL :  cpu time    1.65: real time    1.65
    STRESS:  cpu time    2.03: real time    2.03
    FORCOR:  cpu time    1.35: real time    1.35
    FORHAR:  cpu time    0.54: real time    0.54
    MIXING:  cpu time    0.03: real time    0.03

  FORCE on cell =-STRESS in cart. coord.  units (eV):
  Direction    XX          YY          ZZ          XY          YZ          ZX
  --------------------------------------------------------------------------------------
  Alpha Z    -6.32931    -6.32931    -6.32931
  Ewald    -755.15048  -755.15048  -741.80792   -13.43416     0.00000     0.00000
  Hartree    10.60406    10.60406     4.80155    -1.93246     0.00000     0.00000
  E(xc)    -266.49666  -266.49666  -267.04897     0.10522     0.00000     0.00000
  Local      -2.13771    -2.13771   -10.42558    15.69252     0.00000     0.00000
  n-local   563.00625   563.00590   569.67625    -1.75667    -0.00003     0.00002
  augment   -26.55218   -26.55218   -26.69315     0.09230     0.00000     0.00000
  Kinetic   488.86564   488.86624   482.70961     1.78897     0.00011    -0.00013
  Fock        0.00000     0.00000     0.00000     0.00000     0.00000     0.00000
  -------------------------------------------------------------------------------------
  Total       5.80974     5.80974     4.88247     0.55573     0.00000     0.00000
  in kB      18.25218    18.25218    15.33902     1.74592     0.00000     0.00000
  external pressure =       17.28 kB  Pullay stress =        0.00 kB


 VOLUME and BASIS-vectors are now :
 -----------------------------------------------------------------------------
  energy-cutoff  :      360.00
  volume of cell :      509.98
      direct lattice vectors                 reciprocal lattice vectors
     7.989461639  0.000000000  0.000000000     0.125164879  0.000000000  0.000000000
     0.000000000  7.989461639  0.000000000     0.000000000  0.125164879  0.000000000
     0.000000000  0.000000000  7.989461639     0.000000000  0.000000000  0.125164879

  length of vectors
     7.989461639  7.989461639  7.989461639     0.125164879  0.125164879  0.125164879


 FORCES acting on ions
    electron-ion (+dipol)            ewald-force                    non-local-force                 convergence-correction
 -----------------------------------------------------------------------------------------------
   -.651E+00 -.651E+00 -.959E-07   0.377E+00 0.377E+00 0.316E-14   0.202E+00 0.202E+00 0.000E+00   0.811E-03 0.811E-03 0.482E-13
   -.882E+01 0.368E+01 0.453E-07   0.794E+01 -.320E+01 0.261E-14   0.845E+00 -.937E+00 0.000E+00   0.107E-02 -.107E-02 -.497E-13
   -.131E+01 0.505E+00 -.120E-06   0.143E+01 -.676E+00 0.466E-14   -.528E+00 0.156E+00 0.000E+00   -.103E-02 -.137E-02 0.491E-13
   0.368E+01 -.882E+01 0.453E-07   -.320E+01 0.794E+01 -.500E-15   -.937E+00 0.845E+00 0.000E+00   -.107E-02 0.107E-02 -.483E-13
   0.505E+00 -.131E+01 -.120E-06   -.676E+00 0.143E+01 -.444E-15   0.156E+00 -.528E+00 0.000E+00   -.137E-02 -.103E-02 0.470E-13
   0.917E+01 0.917E+01 -.392E-07   -.919E+01 -.919E+01 0.611E-15   -.275E+00 -.275E+00 0.000E+00   -.103E-02 -.103E-02 -.565E-13
   0.195E+01 0.195E+01 -.147E-06   -.151E+01 -.151E+01 0.239E-14   -.194E+00 -.194E+00 0.000E+00   0.787E-03 0.787E-03 0.550E-13
   -.716E-06 -.716E-06 0.381E-07   -.132E-04 -.132E-04 -.105E-14   0.000E+00 0.339E-20 0.000E+00   0.328E-05 0.328E-05 -.489E-13
   0.651E+00 0.651E+00 -.131E-06   -.378E+00 -.378E+00 -.228E-14   -.202E+00 -.202E+00 0.000E+00   -.805E-03 -.805E-03 0.499E-13
   0.882E+01 -.368E+01 -.376E-07   -.794E+01 0.320E+01 0.999E-15   -.845E+00 0.937E+00 0.000E+00   -.107E-02 0.107E-02 -.421E-13
   0.131E+01 -.505E+00 -.995E-07   -.143E+01 0.676E+00 0.222E-15   0.528E+00 -.156E+00 0.000E+00   0.103E-02 0.137E-02 0.412E-13
   -.368E+01 0.882E+01 -.376E-07   0.320E+01 -.794E+01 -.167E-14   0.937E+00 -.845E+00 0.000E+00   0.107E-02 -.107E-02 -.679E-13
   -.505E+00 0.131E+01 -.995E-07   0.676E+00 -.143E+01 -.161E-14   -.156E+00 0.528E+00 0.000E+00   0.137E-02 0.103E-02 0.664E-13
   -.917E+01 -.917E+01 -.922E-08   0.919E+01 0.919E+01 0.250E-14   0.275E+00 0.275E+00 0.000E+00   0.102E-02 0.102E-02 -.437E-13
   -.195E+01 -.195E+01 -.722E-07   0.151E+01 0.151E+01 0.611E-15   0.194E+00 0.194E+00 0.000E+00   -.793E-03 -.793E-03 0.424E-13
   0.389E+01 -.389E+01 0.744E+01   -.361E+01 0.361E+01 -.797E+01   0.248E+00 -.248E+00 0.900E+00   -.514E-03 0.519E-03 -.296E-02
   0.389E+01 -.389E+01 -.744E+01   -.361E+01 0.361E+01 0.797E+01   0.248E+00 -.248E+00 -.900E+00   -.514E-03 0.519E-03 0.296E-02
   0.546E+00 0.811E+01 0.111E+02   -.329E+00 -.750E+01 -.105E+02   -.186E+00 -.660E+00 -.675E+00   -.110E-03 -.116E-02 -.299E-02
   0.546E+00 0.811E+01 -.111E+02   -.329E+00 -.750E+01 0.105E+02   -.186E+00 -.660E+00 0.675E+00   -.110E-03 -.116E-02 0.299E-02
   -.811E+01 -.546E+00 0.111E+02   0.750E+01 0.329E+00 -.105E+02   0.660E+00 0.186E+00 -.675E+00   0.115E-02 0.116E-03 -.300E-02
   -.811E+01 -.546E+00 -.111E+02   0.750E+01 0.329E+00 0.105E+02   0.660E+00 0.186E+00 0.675E+00   0.115E-02 0.116E-03 0.300E-02
   -.478E+00 0.478E+00 0.376E+01   0.725E+00 -.725E+00 -.336E+01   0.179E-01 -.179E-01 -.188E-01   0.357E-03 -.363E-03 -.101E-02
   -.478E+00 0.478E+00 -.376E+01   0.725E+00 -.725E+00 0.336E+01   0.179E-01 -.179E-01 0.188E-01   0.357E-03 -.363E-03 0.101E-02
   -.389E+01 0.389E+01 0.744E+01   0.361E+01 -.361E+01 -.797E+01   -.248E+00 0.248E+00 0.900E+00   0.519E-03 -.514E-03 -.296E-02
   -.389E+01 0.389E+01 -.744E+01   0.361E+01 -.361E+01 0.797E+01   -.248E+00 0.248E+00 -.900E+00   0.519E-03 -.514E-03 0.296E-02
   -.546E+00 -.811E+01 0.111E+02   0.329E+00 0.750E+01 -.105E+02   0.186E+00 0.660E+00 -.675E+00   0.116E-03 0.115E-02 -.300E-02
   -.546E+00 -.811E+01 -.111E+02   0.329E+00 0.750E+01 0.105E+02   0.186E+00 0.660E+00 0.675E+00   0.116E-03 0.115E-02 0.300E-02
   0.811E+01 0.546E+00 0.111E+02   -.750E+01 -.329E+00 -.105E+02   -.660E+00 -.186E+00 -.675E+00   -.116E-02 -.110E-03 -.299E-02
   0.811E+01 0.546E+00 -.111E+02   -.750E+01 -.329E+00 0.105E+02   -.660E+00 -.186E+00 0.675E+00   -.116E-02 -.110E-03 0.299E-02
   0.478E+00 -.478E+00 0.376E+01   -.725E+00 0.725E+00 -.336E+01   -.179E-01 0.179E-01 -.188E-01   -.363E-03 0.357E-03 -.101E-02
   0.478E+00 -.478E+00 -.376E+01   -.725E+00 0.725E+00 0.336E+01   -.179E-01 0.179E-01 0.188E-01   -.363E-03 0.357E-03 0.101E-02
 -----------------------------------------------------------------------------------------------
   -.162E-03 -.162E-03 -.182E-05   -.338E-13 -.148E-13 0.107E-13   0.500E-15 -.694E-17 0.111E-15   -.266E-05 -.266E-05 0.702E-13
 
 
 POSITION                                       TOTAL-FORCE (eV/Angst)
 -----------------------------------------------------------------------------------
      0.02883      0.02883      3.99473        -0.069924     -0.069924      0.000000
      0.00346      4.05570      0.00000        -0.031587     -0.462672      0.000000
      0.02883      4.03034      3.99473        -0.402985     -0.016184      0.000000
      4.05570      0.00346      0.00000        -0.462672     -0.031587      0.000000
      4.03034      0.02883      3.99473        -0.016184     -0.402985      0.000000
      4.05570      4.05570      0.00000        -0.290360     -0.290360      0.000000
      4.03034      4.03034      3.99473         0.248671      0.248671      0.000000
      1.03090      1.03090      0.00000         0.000000      0.000000      0.000000
      2.03297      2.03297      3.99473         0.069924      0.069924      0.000000
      2.05834      5.99556      0.00000         0.031587      0.462672      0.000000
      2.03297      6.02092      3.99473         0.402985      0.016184      0.000000
      5.99556      2.05834      0.00000         0.462672      0.031587      0.000000
      6.02092      2.03297      3.99473         0.016184      0.402985      0.000000
      5.99556      5.99556      0.00000         0.290360      0.290360      0.000000
      6.02092      6.02092      3.99473        -0.248671     -0.248671      0.000000
      2.05834      0.00346      2.05488         0.532026     -0.532026      0.367551
      2.05834      0.00346      5.93459         0.532026     -0.532026     -0.367551
      2.03297      4.05570      2.02951         0.031122     -0.057796     -0.117810
      2.03297      4.05570      5.95995         0.031122     -0.057796      0.117810
      5.99556      0.02883      2.02951         0.057796     -0.031122     -0.117810
      5.99556      0.02883      5.95995         0.057796     -0.031122      0.117810
      6.02092      4.03034      2.00414         0.264780     -0.264780      0.376484
      6.02092      4.03034      5.98532         0.264780     -0.264780     -0.376484
      0.00346      2.05834      2.05488        -0.532026      0.532026      0.367551
      0.00346      2.05834      5.93459        -0.532026      0.532026     -0.367551
      0.02883      5.99556      2.02951        -0.031122      0.057796     -0.117810
      0.02883      5.99556      5.95995        -0.031122      0.057796      0.117810
      4.05570      2.03297      2.02951        -0.057796      0.031122     -0.117810
      4.05570      2.03297      5.95995        -0.057796      0.031122      0.117810
      4.03034      6.02092      2.00414        -0.264780      0.264780      0.376484
      4.03034      6.02092      5.98532        -0.264780      0.264780     -0.376484
 -----------------------------------------------------------------------------------
    total drift:                               -0.000164     -0.000164     -0.000002


--------------------------------------------------------------------------------------------------------


    POTLOK:  cpu time    1.19: real time    1.19


--------------------------------------------------------------------------------------------------------


 NEB: the previous image is higher in energy: F
 NEB: the next image is higher in energy    : F
 NEB: image is at an extrema
 NEB: diff energy (min, max):     0.293056    0.293065

 NEB: Tangent
 ----------------------------------------------
      0.01946      0.01946      0.00000
      0.00234      0.04115      0.00000
      0.01946      0.02403      0.00000
      0.04115      0.00234      0.00000
      0.02403      0.01946      0.00000
      0.04115      0.04115      0.00000
      0.02403      0.02403      0.00000
     -0.69109     -0.69109      0.00000
      0.01945      0.01945      0.00000
      0.00234      0.04115      0.00000
      0.01945      0.02403      0.00000
      0.04115      0.00234      0.00000
      0.02403      0.01945      0.00000
      0.04115      0.04115      0.00000
      0.02403      0.02403      0.00000
      0.00234      0.00234      0.00000
      0.00234      0.00234      0.00000
      0.01945      0.04115      0.01712
      0.01945      0.04115     -0.01712
      0.04115      0.01946     -0.01712
      0.04115      0.01946      0.01712
      0.02403      0.02403      0.00000
      0.02403      0.02403      0.00000
      0.00234      0.00234      0.00000
      0.00234      0.00234      0.00000
      0.01946      0.04115     -0.01712
      0.01946      0.04115      0.01712
      0.04115      0.01945      0.01712
      0.04115      0.01945     -0.01712
      0.02403      0.02403      0.00000
      0.02403      0.02403      0.00000

 NEB: forces: par spring, perp REAL, dneb     0.000000    2.488605    0.000000
 NEB: distance to prev, next image, angle between     0.740845    0.740845  179.999997
 NEB: projections on to tangent (spring, REAL)     0.000000   -0.000001

  FORCES: max atom, RMS     0.837375    0.446967
  FORCE total and by dimension    2.488605    0.532026
 Quasi-Newton relaxation of ions (Broydens 2nd method)
  g(Force)  = 0.530E+00   g(Stress)= 0.000E+00

 Reset! Starting new Quasi-Newton update for ions 


--------------------------------------------------------------------------------------------------------


    WAVPRE:  cpu time    0.36: real time    0.36
    FEWALD:  cpu time    0.01: real time    0.01
    ORTHCH:  cpu time    0.22: real time    0.22
     LOOP+:  cpu time   75.09: real time   75.14
   RESPFUN:  cpu time    0.00: real time    0.00


----------------------------------------- Iteration    2(   1)  ---------------------------------------


    POTLOK:  cpu time    1.17: real time    1.17
    SETDIJ:  cpu time    0.07: real time    0.07
     EDDAV:  cpu time    4.18: real time    4.18
       DOS:  cpu time    0.00: real time    0.00
    CHARGE:  cpu time    0.50: real time    0.50
    MIXING:  cpu time    0.03: real time    0.03
    --------------------------------------------
      LOOP:  cpu time    5.96: real time    5.96

 eigenvalue-minimisations  :   140
 total energy-change (2. order) :-0.2403225E+00  (-0.2598879E+00)
 number of electron   93.0000000 magnetization 
 augmentation part    -0.9970862 magnetization 

 Broyden mixing:
  rms(total) = 0.43537E-01    rms(broyden)= 0.43535E-01
  rms(prec ) = 0.11394E+00
  weight for this iteration     100.00

 Free energy of the ion-electron system (eV)
  ---------------------------------------------------
  alpha Z        PSCENC =        -6.32931246
  Ewald energy   TEWEN  =     -2251.39494260
  -1/2 Hartree   DENC   =       -26.89951693
  -exchange  EXHF       =         0.00000000
  -V(xc)+E(xc)   XCENC  =      -808.46030654
  PAW double counting   =      1104.80070769     -114.63419462
  entropy T*S    EENTRO =        -0.01699704
  eigenvalues    EBANDS =       343.92757077
  atomic energy  EATOM  =      1659.68123870
  ---------------------------------------------------
  free energy    TOTEN  =       -99.32575304 eV

  energy without entropy =      -99.30875600  energy(sigma->0) =      -99.32008736


--------------------------------------------------------------------------------------------------------




----------------------------------------- Iteration    2(   2)  ---------------------------------------


    POTLOK:  cpu time    1.15: real time    1.15
    SETDIJ:  cpu time    0.07: real time    0.07
     EDDAV:  cpu time    3.98: real time    3.98
       DOS:  cpu time    0.00: real time    0.00
    CHARGE:  cpu time    0.51: real time    0.51
    MIXING:  cpu time    0.03: real time    0.03
    --------------------------------------------
      LOOP:  cpu time    5.73: real time    5.74

 eigenvalue-minimisations  :   130
 total energy-change (2. order) : 0.1026166E-01  (-0.1385646E-01)
 number of electron   93.0000000 magnetization 
 augmentation part    -0.9978983 magnetization 

 Broyden mixing:
  rms(total) = 0.17717E-01    rms(broyden)= 0.17716E-01
  rms(prec ) = 0.37064E-01
  weight for this iteration     100.00

 eigenvalues of (default mixing * dielectric matrix)
  average eigenvalue GAMMA=   1.3896
  1.3896

 Free energy of the ion-electron system (eV)
  ---------------------------------------------------
  alpha Z        PSCENC =        -6.32931246
  Ewald energy   TEWEN  =     -2251.39494260
  -1/2 Hartree   DENC   =       -27.04717751
  -exchange  EXHF       =         0.00000000
  -V(xc)+E(xc)   XCENC  =      -808.46152079
  PAW double counting   =      1104.75974411     -114.59074362
  entropy T*S    EENTRO =        -0.00567256
  eigenvalues    EBANDS =       344.07289534
  atomic energy  EATOM  =      1659.68123870
  ---------------------------------------------------
  free energy    TOTEN  =       -99.31549138 eV

  energy without entropy =      -99.30981883  energy(sigma->0) =      -99.31360053


--------------------------------------------------------------------------------------------------------




----------------------------------------- Iteration    2(   3)  ---------------------------------------


    POTLOK:  cpu time    1.16: real time    1.16
    SETDIJ:  cpu time    0.07: real time    0.07
     EDDAV:  cpu time    4.63: real time    4.64
       DOS:  cpu time    0.00: real time    0.00
    CHARGE:  cpu time    0.51: real time    0.52
    MIXING:  cpu time    0.03: real time    0.03
    --------------------------------------------
      LOOP:  cpu time    6.41: real time    6.42

 eigenvalue-minimisations  :   160
 total energy-change (2. order) : 0.1593085E-02  (-0.1128301E-02)
 number of electron   93.0000000 magnetization 
 augmentation part    -0.9978739 magnetization 

 Broyden mixing:
  rms(total) = 0.68897E-02    rms(broyden)= 0.68897E-02
  rms(prec ) = 0.12007E-01
  weight for this iteration     100.00

 eigenvalues of (default mixing * dielectric matrix)
  average eigenvalue GAMMA=   1.2732
  1.5979  0.9484

 Free energy of the ion-electron system (eV)
  ---------------------------------------------------
  alpha Z        PSCENC =        -6.32931246
  Ewald energy   TEWEN  =     -2251.39494260
  -1/2 Hartree   DENC   =       -27.02323376
  -exchange  EXHF       =         0.00000000
  -V(xc)+E(xc)   XCENC  =      -808.46517302
  PAW double counting   =      1104.72848917     -114.55841959
  entropy T*S    EENTRO =        -0.00513303
  eigenvalues    EBANDS =       344.05258828
  atomic energy  EATOM  =      1659.68123870
  ---------------------------------------------------
  free energy    TOTEN  =       -99.31389830 eV

  energy without entropy =      -99.30876527  energy(sigma->0) =      -99.31218729


--------------------------------------------------------------------------------------------------------




----------------------------------------- Iteration    2(   4)  ---------------------------------------


    POTLOK:  cpu time    1.16: real time    1.16
    SETDIJ:  cpu time    0.07: real time    0.07
     EDDAV:  cpu time    4.60: real time    4.61
       DOS:  cpu time    0.00: real time    0.00
    CHARGE:  cpu time    0.50: real time    0.50
    MIXING:  cpu time    0.03: real time    0.03
    --------------------------------------------
      LOOP:  cpu time    6.37: real time    6.37

 eigenvalue-minimisations  :   160
 total energy-change (2. order) : 0.5938620E-04  (-0.1091134E-03)
 number of electron   93.0000000 magnetization 
 augmentation part    -0.9977935 magnetization 

 Broyden mixing:
  rms(total) = 0.32474E-02    rms(broyden)= 0.32474E-02
  rms(prec ) = 0.53308E-02
  weight for this iteration     100.00

 eigenvalues of (default mixing * dielectric matrix)
  average eigenvalue GAMMA=   1.3212
  1.8476  1.2679  0.8481

 Free energy of the ion-electron system (eV)
  ---------------------------------------------------
  alpha Z        PSCENC =        -6.32931246
  Ewald energy   TEWEN  =     -2251.39494260
  -1/2 Hartree   DENC   =       -27.01360861
  -exchange  EXHF       =         0.00000000
  -V(xc)+E(xc)   XCENC  =      -808.46692526
  PAW double counting   =      1104.71599420     -114.54565810
  entropy T*S    EENTRO =        -0.00476455
  eigenvalues    EBANDS =       344.04413977
  atomic energy  EATOM  =      1659.68123870
  ---------------------------------------------------
  free energy    TOTEN  =       -99.31383891 eV

  energy without entropy =      -99.30907436  energy(sigma->0) =      -99.31225073


--------------------------------------------------------------------------------------------------------




----------------------------------------- Iteration    2(   5)  ---------------------------------------


    POTLOK:  cpu time    1.09: real time    1.09
    SETDIJ:  cpu time    0.07: real time    0.07
     EDDAV:  cpu time    3.33: real time    3.33
       DOS:  cpu time    0.00: real time    0.00
    --------------------------------------------
      LOOP:  cpu time    4.49: real time    4.49

 eigenvalue-minimisations  :   112
 total energy-change (2. order) : 0.4665624E-06  (-0.1144723E-04)
 number of electron   93.0000000 magnetization 
 augmentation part    -0.9977935 magnetization 

 Free energy of the ion-electron system (eV)
  ---------------------------------------------------
  alpha Z        PSCENC =        -6.32931246
  Ewald energy   TEWEN  =     -2251.39494260
  -1/2 Hartree   DENC   =       -27.00425434
  -exchange  EXHF       =         0.00000000
  -V(xc)+E(xc)   XCENC  =      -808.46775267
  PAW double counting   =      1104.70901452     -114.53850667
  entropy T*S    EENTRO =        -0.00500136
  eigenvalues    EBANDS =       344.03567845
  atomic energy  EATOM  =      1659.68123870
  ---------------------------------------------------
  free energy    TOTEN  =       -99.31383844 eV

  energy without entropy =      -99.30883708  energy(sigma->0) =      -99.31217132


--------------------------------------------------------------------------------------------------------




 average (electrostatic) potential at core
  the test charge radii are     1.0406
  (the norm of the test charge is              1.0000)
       1 -72.6815       2 -72.8647       3 -72.3306       4 -72.8647       5 -72.3306
       6 -72.4017       7 -72.6406       8 -72.7031       9 -72.6816      10 -72.8647
      11 -72.3306      12 -72.8647      13 -72.3306      14 -72.4017      15 -72.6406
      16 -72.6048      17 -72.6048      18 -72.7552      19 -72.7552      20 -72.7552
      21 -72.7552      22 -72.6254      23 -72.6254      24 -72.6048      25 -72.6048
      26 -72.7552      27 -72.7552      28 -72.7552      29 -72.7552      30 -72.6254
      31 -72.6254
 
 
 
 E-fermi :   8.1928     XC(G=0): -10.1713     alpha+bet :-14.9207
   add alpha+bet to get absolut eigen values

 k-point   1 :       0.0000    0.0000    0.0000
  band No.  band energies     occupation 
      1      -3.2351      2.00000
      2      -1.1386      2.00000
      3      -1.0444      2.00000
      4      -0.9975      2.00000
      5      -0.9917      2.00000
      6      -0.7158      2.00000
      7      -0.6959      2.00000
      8       1.0806      2.00000
      9       1.1064      2.00000
     10       1.1808      2.00000
     11       1.2107      2.00000
     12       1.2770      2.00000
     13       1.2785      2.00000
     14       1.3060      2.00000
     15       1.3760      2.00000
     16       1.3979      2.00000
     17       1.5108      2.00000
     18       1.5942      2.00000
     19       2.2135      2.00000
     20       3.3469      2.00000
     21       3.4242      2.00000
     22       3.4581      2.00000
     23       3.5496      2.00000
     24       3.5858      2.00000
     25       3.6586      2.00000
     26       4.0232      2.00000
     27       4.1959      2.00000
     28       5.1673      2.00000
     29       5.2058      2.00000
     30       5.2294      2.00000
     31       6.4203      2.00000
     32       6.5871      2.00000
     33       6.7074      2.00000
     34       7.0152      2.00000
     35       7.0189      2.00000
     36       7.0901      2.00000
     37       7.1074      2.00000
     38       7.1915      2.00000
     39       7.2225      2.00000
     40       7.3086      2.00000
     41       7.3427      2.00000
     42       7.4576      2.00000
     43       7.6297      2.00050
     44       7.6423      2.00070
     45       7.6954      2.00245
     46       7.9203      2.06608
     47       8.2183      0.78645
     48       8.3310      0.08661
     49       8.3407      0.05430
     50       8.3433      0.04619
     51       8.5190     -0.04329
     52       9.1173      0.00000
     53       9.1242      0.00000
     54       9.1442      0.00000
     55       9.2602      0.00000
     56       9.3206      0.00000
     57       9.3250      0.00000
     58       9.3764      0.00000
     59       9.4288      0.00000
     60       9.4770      0.00000
     61       9.5452      0.00000
     62       9.5920      0.00000


--------------------------------------------------------------------------------------------------------


 soft charge-density along one line, spin component           1
         0         1         2         3         4         5         6         7         8         9
 total charge-density along one line
 
 pseudopotential strength for first ion, spin component:           1
  8.446  -0.006   0.000   0.000   0.000   0.000   0.000   0.000
 -0.006   0.000   0.000   0.000   0.000   0.000   0.000   0.000
  0.000   0.000   1.988   0.000   0.000  -0.026   0.000   0.000
  0.000   0.000   0.000   1.988   0.000   0.000  -0.026   0.000
  0.000   0.000   0.000   0.000   1.988   0.000   0.000  -0.026
  0.000   0.000  -0.026   0.000   0.000  -0.012   0.000   0.000
  0.000   0.000   0.000  -0.026   0.000   0.000  -0.012   0.000
  0.000   0.000   0.000   0.000  -0.026   0.000   0.000  -0.012
 total augmentation occupancy for first ion, spin component:           1
  1.148  -0.571  -0.008   0.000  -0.008   0.002   0.000   0.002
 -0.571   0.487  -0.005   0.000  -0.005   0.000   0.000   0.000
 -0.008  -0.005   0.850   0.000  -0.007  -0.166   0.000   0.001
  0.000   0.000   0.000   0.800   0.000   0.000  -0.160   0.000
 -0.008  -0.005  -0.007   0.000   0.850   0.001   0.000  -0.166
  0.002   0.000  -0.166   0.000   0.001   0.040   0.000   0.000
  0.000   0.000   0.000  -0.160   0.000   0.000   0.040   0.000
  0.002   0.000   0.001   0.000  -0.166   0.000   0.000   0.040


------------------------ aborting loop because EDIFF is reached ----------------------------------------




--------------------------------------------------------------------------------------------------------



  FREE ENERGIE OF THE ION-ELECTRON SYSTEM (eV)
  ---------------------------------------------------
  free  energy   TOTEN  =       -99.313838 eV

  energy  without entropy=      -99.308837  energy(sigma->0) =      -99.312171
 
    CHARGE:  cpu time    0.48: real time    0.48
    FORLOC:  cpu time    0.28: real time    0.28
    FORNL :  cpu time    1.64: real time    1.65
    STRESS:  cpu time    2.04: real time    2.04
    FORCOR:  cpu time    1.29: real time    1.29
    FORHAR:  cpu time    0.51: real time    0.51
    MIXING:  cpu time    0.03: real time    0.03

  FORCE on cell =-STRESS in cart. coord.  units (eV):
  Direction    XX          YY          ZZ          XY          YZ          ZX
  --------------------------------------------------------------------------------------
  Alpha Z    -6.32931    -6.32931    -6.32931
  Ewald    -754.32975  -754.32975  -742.74448   -11.94811     0.00000     0.00000
  Hartree    11.07836    11.07836     4.84910    -1.26466     0.00000     0.00000
  E(xc)    -266.49966  -266.49966  -266.95844     0.09634     0.00000     0.00000
  Local      -3.59004    -3.59004    -9.07697    13.32859     0.00000     0.00000
  n-local   563.26630   563.26597   568.76413    -1.67179     0.00001    -0.00001
  augment   -26.58491   -26.58491   -26.68554     0.07268     0.00001     0.00002
  Kinetic   488.24755   488.24855   483.42260     2.47954     0.00008    -0.00006
  Fock        0.00000     0.00000     0.00000     0.00000     0.00000     0.00000
  -------------------------------------------------------------------------------------
  Total       5.25887     5.25887     5.24109     1.09258     0.00000     0.00000
  in kB      16.52153    16.52153    16.46567     3.43252     0.00000     0.00000
  external pressure =       16.50 kB  Pullay stress =        0.00 kB


 VOLUME and BASIS-vectors are now :
 -----------------------------------------------------------------------------
  energy-cutoff  :      360.00
  volume of cell :      509.98
      direct lattice vectors                 reciprocal lattice vectors
     7.989461639  0.000000000  0.000000000     0.125164879  0.000000000  0.000000000
     0.000000000  7.989461639  0.000000000     0.000000000  0.125164879  0.000000000
     0.000000000  0.000000000  7.989461639     0.000000000  0.000000000  0.125164879

  length of vectors
     7.989461639  7.989461639  7.989461639     0.125164879  0.125164879  0.125164879


 FORCES acting on ions
    electron-ion (+dipol)            ewald-force                    non-local-force                 convergence-correction
 -----------------------------------------------------------------------------------------------
   -.686E+00 -.686E+00 -.100E-06   0.452E+00 0.452E+00 0.261E-14   0.207E+00 0.207E+00 0.000E+00   0.290E-02 0.290E-02 -.148E-12
   -.914E+01 0.259E+01 -.110E-07   0.822E+01 -.245E+01 0.144E-14   0.990E+00 -.436E+00 0.000E+00   0.346E-02 -.130E-02 0.143E-12
   -.334E+01 -.550E+00 -.841E-07   0.315E+01 0.272E+00 -.666E-15   0.245E-01 0.428E+00 0.000E+00   0.201E-02 -.283E-02 -.150E-12
   0.259E+01 -.914E+01 -.110E-07   -.245E+01 0.822E+01 0.333E-14   -.436E+00 0.990E+00 0.000E+00   -.130E-02 0.346E-02 0.116E-12
   -.550E+00 -.334E+01 -.841E-07   0.272E+00 0.315E+01 -.250E-14   0.428E+00 0.245E-01 0.000E+00   -.283E-02 0.201E-02 -.133E-12
   0.817E+01 0.817E+01 -.135E-06   -.838E+01 -.838E+01 0.377E-14   0.424E-01 0.424E-01 0.000E+00   -.277E-02 -.277E-02 0.167E-12
   0.317E+01 0.317E+01 -.142E-06   -.243E+01 -.243E+01 0.233E-14   -.532E+00 -.532E+00 0.000E+00   -.173E-02 -.173E-02 -.158E-12
   0.118E-05 0.118E-05 0.391E-07   -.129E-04 -.129E-04 0.333E-14   0.000E+00 0.000E+00 0.000E+00   0.877E-06 0.877E-06 0.117E-12
   0.686E+00 0.686E+00 -.108E-06   -.452E+00 -.452E+00 -.111E-14   -.207E+00 -.207E+00 0.000E+00   -.290E-02 -.290E-02 -.115E-12
   0.914E+01 -.259E+01 -.548E-07   -.822E+01 0.245E+01 -.322E-14   -.990E+00 0.436E+00 0.000E+00   -.346E-02 0.130E-02 0.774E-13
   0.334E+01 0.550E+00 -.597E-07   -.315E+01 -.272E+00 0.527E-14   -.245E-01 -.428E+00 0.000E+00   -.201E-02 0.283E-02 -.734E-13
   -.259E+01 0.914E+01 -.548E-07   0.245E+01 -.822E+01 0.555E-16   0.436E+00 -.990E+00 0.000E+00   0.130E-02 -.346E-02 0.229E-12
   0.550E+00 0.334E+01 -.597E-07   -.272E+00 -.315E+01 0.328E-14   -.428E+00 -.245E-01 0.000E+00   0.283E-02 -.201E-02 -.251E-12
   -.817E+01 -.817E+01 -.159E-07   0.838E+01 0.838E+01 -.133E-14   -.424E-01 -.424E-01 0.000E+00   0.277E-02 0.277E-02 0.148E-12
   -.317E+01 -.317E+01 -.160E-07   0.243E+01 0.243E+01 0.233E-14   0.532E+00 0.532E+00 0.000E+00   0.173E-02 0.173E-02 -.174E-12
   0.578E+01 -.578E+01 0.816E+01   -.515E+01 0.515E+01 -.847E+01   -.385E+00 0.385E+00 0.535E+00   -.269E-02 0.270E-02 0.118E-02
   0.578E+01 -.578E+01 -.816E+01   -.515E+01 0.515E+01 0.847E+01   -.385E+00 0.385E+00 -.535E+00   -.269E-02 0.270E-02 -.118E-02
   0.644E+00 0.822E+01 0.111E+02   -.403E+00 -.765E+01 -.106E+02   -.234E+00 -.607E+00 -.585E+00   -.318E-02 -.171E-02 0.614E-03
   0.644E+00 0.822E+01 -.111E+02   -.403E+00 -.765E+01 0.106E+02   -.234E+00 -.607E+00 0.585E+00   -.318E-02 -.171E-02 -.614E-03
   -.822E+01 -.644E+00 0.111E+02   0.765E+01 0.403E+00 -.106E+02   0.607E+00 0.234E+00 -.585E+00   0.170E-02 0.318E-02 0.614E-03
   -.822E+01 -.644E+00 -.111E+02   0.765E+01 0.403E+00 0.106E+02   0.607E+00 0.234E+00 0.585E+00   0.170E-02 0.318E-02 -.614E-03
   0.733E+00 -.733E+00 0.581E+01   -.296E+00 0.296E+00 -.509E+01   -.387E+00 0.387E+00 -.449E+00   0.275E-02 -.275E-02 0.178E-02
   0.733E+00 -.733E+00 -.581E+01   -.296E+00 0.296E+00 0.509E+01   -.387E+00 0.387E+00 0.449E+00   0.275E-02 -.275E-02 -.178E-02
   -.578E+01 0.578E+01 0.816E+01   0.515E+01 -.515E+01 -.847E+01   0.385E+00 -.385E+00 0.535E+00   0.270E-02 -.269E-02 0.118E-02
   -.578E+01 0.578E+01 -.816E+01   0.515E+01 -.515E+01 0.847E+01   0.385E+00 -.385E+00 -.535E+00   0.270E-02 -.269E-02 -.118E-02
   -.644E+00 -.822E+01 0.111E+02   0.403E+00 0.765E+01 -.106E+02   0.234E+00 0.607E+00 -.585E+00   0.318E-02 0.170E-02 0.614E-03
   -.644E+00 -.822E+01 -.111E+02   0.403E+00 0.765E+01 0.106E+02   0.234E+00 0.607E+00 0.585E+00   0.318E-02 0.170E-02 -.614E-03
   0.822E+01 0.644E+00 0.111E+02   -.765E+01 -.403E+00 -.106E+02   -.607E+00 -.234E+00 -.585E+00   -.171E-02 -.318E-02 0.614E-03
   0.822E+01 0.644E+00 -.111E+02   -.765E+01 -.403E+00 0.106E+02   -.607E+00 -.234E+00 0.585E+00   -.171E-02 -.318E-02 -.614E-03
   -.733E+00 0.733E+00 0.581E+01   0.296E+00 -.296E+00 -.509E+01   0.387E+00 -.387E+00 -.449E+00   -.275E-02 0.275E-02 0.178E-02
   -.733E+00 0.733E+00 -.581E+01   0.296E+00 -.296E+00 0.509E+01   0.387E+00 -.387E+00 0.449E+00   -.275E-02 0.275E-02 -.178E-02
 -----------------------------------------------------------------------------------------------
   -.180E-03 -.180E-03 -.156E-05   0.530E-13 0.399E-13 0.711E-14   0.500E-15 0.444E-15 0.000E+00   -.915E-06 -.915E-06 -.191E-12
 
 
[...]
    CHARGE:  cpu time    0.51: real time    0.51
    MIXING:  cpu time    0.03: real time    0.03
    --------------------------------------------
      LOOP:  cpu time    5.95: real time    5.95

 eigenvalue-minimisations  :   136
 total energy-change (2. order) :-0.1243998E-03  (-0.2057780E-03)
 number of electron   93.0000000 magnetization 
 augmentation part    -1.0011509 magnetization 

 Broyden mixing:
  rms(total) = 0.16313E-02    rms(broyden)= 0.16312E-02
  rms(prec ) = 0.49751E-02
  weight for this iteration     100.00

 Free energy of the ion-electron system (eV)
  ---------------------------------------------------
  alpha Z        PSCENC =        -6.32931246
  Ewald energy   TEWEN  =     -2252.18833573
  -1/2 Hartree   DENC   =       -26.95963753
  -exchange  EXHF       =         0.00000000
  -V(xc)+E(xc)   XCENC  =      -808.52016782
  PAW double counting   =      1104.93256378     -114.77292659
  entropy T*S    EENTRO =        -0.00198564
  eigenvalues    EBANDS =       344.62029309
  atomic energy  EATOM  =      1659.68123870
  ---------------------------------------------------
  free energy    TOTEN  =       -99.53827022 eV

  energy without entropy =      -99.53628458  energy(sigma->0) =      -99.53760834


--------------------------------------------------------------------------------------------------------




----------------------------------------- Iteration   14(   2)  ---------------------------------------


    POTLOK:  cpu time    1.16: real time    1.16
    SETDIJ:  cpu time    0.07: real time    0.07
     EDDAV:  cpu time    3.39: real time    3.39
       DOS:  cpu time    0.00: real time    0.00
    --------------------------------------------
      LOOP:  cpu time    4.62: real time    4.62

 eigenvalue-minimisations  :   104
 total energy-change (2. order) : 0.1257034E-04  (-0.1875156E-04)
 number of electron   93.0000000 magnetization 
 augmentation part    -1.0011509 magnetization 

 Free energy of the ion-electron system (eV)
  ---------------------------------------------------
  alpha Z        PSCENC =        -6.32931246
  Ewald energy   TEWEN  =     -2252.18833573
  -1/2 Hartree   DENC   =       -26.96120622
  -exchange  EXHF       =         0.00000000
  -V(xc)+E(xc)   XCENC  =      -808.51997950
  PAW double counting   =      1104.93351600     -114.77392011
  entropy T*S    EENTRO =        -0.00214774
  eigenvalues    EBANDS =       344.62188942
  atomic energy  EATOM  =      1659.68123870
  ---------------------------------------------------
  free energy    TOTEN  =       -99.53825765 eV

  energy without entropy =      -99.53610991  energy(sigma->0) =      -99.53754174


--------------------------------------------------------------------------------------------------------




 average (electrostatic) potential at core
  the test charge radii are     1.0406
  (the norm of the test charge is              1.0000)
       1 -72.5667       2 -72.8769       3 -72.3207       4 -72.8769       5 -72.3207
       6 -72.4770       7 -72.4903       8 -72.7895       9 -72.5667      10 -72.8769
      11 -72.3207      12 -72.8769      13 -72.3207      14 -72.4770      15 -72.4902
      16 -72.5969      17 -72.5969      18 -72.7482      19 -72.7482      20 -72.7482
      21 -72.7482      22 -72.6403      23 -72.6403      24 -72.5969      25 -72.5969
      26 -72.7482      27 -72.7482      28 -72.7482      29 -72.7482      30 -72.6403
      31 -72.6403
 
 
 
 E-fermi :   8.2317     XC(G=0): -10.1738     alpha+bet :-14.9207
   add alpha+bet to get absolut eigen values

 k-point   1 :       0.0000    0.0000    0.0000
  band No.  band energies     occupation 
      1      -3.2302      2.00000
      2      -1.1569      2.00000
      3      -1.0067      2.00000
      4      -0.9773      2.00000
      5      -0.8835      2.00000
      6      -0.7929      2.00000
      7      -0.6763      2.00000
      8       1.0951      2.00000
      9       1.1177      2.00000
     10       1.1554      2.00000
     11       1.2785      2.00000
     12       1.3033      2.00000
     13       1.3069      2.00000
     14       1.3401      2.00000
     15       1.3580      2.00000
     16       1.4722      2.00000
     17       1.4969      2.00000
     18       1.5837      2.00000
     19       2.1651      2.00000
     20       3.3905      2.00000
     21       3.4680      2.00000
     22       3.4723      2.00000
     23       3.5728      2.00000
     24       3.5848      2.00000
     25       3.6662      2.00000
     26       4.0364      2.00000
     27       4.1374      2.00000
     28       5.1750      2.00000
     29       5.1840      2.00000
     30       5.2100      2.00000
     31       6.4029      2.00000
     32       6.6019      2.00000
     33       6.6939      2.00000
     34       6.9937      2.00000
     35       7.0174      2.00000
     36       7.1622      2.00000
     37       7.2168      2.00000
     38       7.2577      2.00000
     39       7.3108      2.00000
     40       7.3276      2.00000
     41       7.3347      2.00000
     42       7.4085      2.00000
     43       7.5610      2.00002
     44       7.5876      2.00005
     45       7.6774      2.00063
     46       7.8039      2.00995
     47       8.2355      0.96731
     48       8.3481      0.17643
     49       8.4183     -0.03350
     50       8.4626     -0.06926
     51       8.5397     -0.05164
     52       9.0379      0.00000
     53       9.1357      0.00000
     54       9.2045      0.00000
     55       9.2624      0.00000
     56       9.3298      0.00000
     57       9.3693      0.00000
     58       9.3897      0.00000
     59       9.4567      0.00000
     60       9.4958      0.00000
     61       9.5337      0.00000
     62       9.5595      0.00000


--------------------------------------------------------------------------------------------------------


 soft charge-density along one line, spin component           1
         0         1         2         3         4         5         6         7         8         9
 total charge-density along one line
 
 pseudopotential strength for first ion, spin component:           1
  8.444  -0.006   0.000   0.000   0.000   0.000   0.000   0.000
 -0.006   0.000   0.000   0.000   0.000   0.000   0.000   0.000
  0.000   0.000   1.989   0.000   0.000  -0.027   0.000   0.000
  0.000   0.000   0.000   1.989   0.000   0.000  -0.027   0.000
  0.000   0.000   0.000   0.000   1.989   0.000   0.000  -0.027
  0.000   0.000  -0.027   0.000   0.000  -0.012   0.000   0.000
  0.000   0.000   0.000  -0.027   0.000   0.000  -0.012   0.000
  0.000   0.000   0.000   0.000  -0.027   0.000   0.000  -0.012
 total augmentation occupancy for first ion, spin component:           1
  1.140  -0.581  -0.011   0.000  -0.011  -0.002   0.000  -0.002
 -0.581   0.499  -0.016   0.000  -0.016   0.005   0.000   0.005
 -0.011  -0.016   0.860   0.000   0.008  -0.167   0.000  -0.001
  0.000   0.000   0.000   0.825   0.000   0.000  -0.168   0.000
 -0.011  -0.016   0.008   0.000   0.860  -0.001   0.000  -0.167
 -0.002   0.005  -0.167   0.000  -0.001   0.041   0.000   0.000
  0.000   0.000   0.000  -0.168   0.000   0.000   0.042   0.000
 -0.002   0.005  -0.001   0.000  -0.167   0.000   0.000   0.041


------------------------ aborting loop because EDIFF is reached ----------------------------------------




--------------------------------------------------------------------------------------------------------



  FREE ENERGIE OF THE ION-ELECTRON SYSTEM (eV)
  ---------------------------------------------------
  free  energy   TOTEN  =       -99.538258 eV

  energy  without entropy=      -99.536110  energy(sigma->0) =      -99.537542
 
    CHARGE:  cpu time    0.50: real time    0.50
    FORLOC:  cpu time    0.27: real time    0.27
    FORNL :  cpu time    1.64: real time    1.64
    STRESS:  cpu time    2.02: real time    2.02
    FORCOR:  cpu time    1.33: real time    1.33
    FORHAR:  cpu time    0.56: real time    0.56
    MIXING:  cpu time    0.03: real time    0.03

  FORCE on cell =-STRESS in cart. coord.  units (eV):
  Direction    XX          YY          ZZ          XY          YZ          ZX
  --------------------------------------------------------------------------------------
  Alpha Z    -6.32931    -6.32931    -6.32931
  Ewald    -750.12214  -750.12214  -751.95266    -9.38946     0.00000     0.00000
  Hartree    14.04267    14.04267    -1.12262    -2.44871     0.00000     0.00000
  E(xc)    -266.54568  -266.54568  -266.83016     0.01873     0.00000     0.00000
  Local     -11.98672   -11.98672     8.21237    12.18306     0.00000     0.00000
  n-local   564.95614   564.95614   567.80650    -0.75751     0.00000     0.00000
  augment   -26.74555   -26.74555   -26.63127     0.00740     0.00002     0.00001
  Kinetic   486.93030   486.93030   484.77099     3.37297     0.00000     0.00000
  Fock        0.00000     0.00000     0.00000     0.00000     0.00000     0.00000
  -------------------------------------------------------------------------------------
  Total       4.19971     4.19971     7.92384     2.98648     0.00000     0.00000
  in kB      13.19401    13.19401    24.89395     9.38248     0.00000     0.00000
  external pressure =       17.09 kB  Pullay stress =        0.00 kB


 VOLUME and BASIS-vectors are now :
 -----------------------------------------------------------------------------
  energy-cutoff  :      360.00
  volume of cell :      509.98
      direct lattice vectors                 reciprocal lattice vectors
     7.989461639  0.000000000  0.000000000     0.125164879  0.000000000  0.000000000
     0.000000000  7.989461639  0.000000000     0.000000000  0.125164879  0.000000000
     0.000000000  0.000000000  7.989461639     0.000000000  0.000000000  0.125164879

  length of vectors
     7.989461639  7.989461639  7.989461639     0.125164879  0.125164879  0.125164879


 FORCES acting on ions
    electron-ion (+dipol)            ewald-force                    non-local-force                 convergence-correction
 -----------------------------------------------------------------------------------------------
   0.904E+00 0.904E+00 0.371E-07   -.812E+00 -.812E+00 -.611E-15   -.983E-01 -.983E-01 0.000E+00   0.441E-02 0.441E-02 -.410E-13
   -.643E+01 -.306E+01 0.946E-07   0.634E+01 0.137E+01 0.144E-14   0.898E-01 0.170E+01 0.000E+00   0.239E-02 -.380E-02 0.109E-12
   -.564E+01 -.111E+01 0.685E-08   0.512E+01 0.101E+01 0.611E-15   0.519E+00 0.961E-01 0.000E+00   0.380E-02 -.406E-02 -.477E-13
   -.306E+01 -.643E+01 0.946E-07   0.137E+01 0.634E+01 0.255E-14   0.170E+01 0.898E-01 0.000E+00   -.380E-02 0.239E-02 0.350E-13
   -.111E+01 -.564E+01 0.685E-08   0.101E+01 0.512E+01 0.999E-15   0.961E-01 0.519E+00 0.000E+00   -.406E-02 0.380E-02 -.303E-13
   0.551E+01 0.551E+01 0.302E-08   -.594E+01 -.594E+01 -.266E-14   0.426E+00 0.426E+00 0.000E+00   -.301E-02 -.301E-02 0.398E-13
   0.797E+01 0.797E+01 0.193E-07   -.597E+01 -.597E+01 -.255E-14   -.201E+01 -.201E+01 0.000E+00   -.275E-02 -.275E-02 0.176E-13
   0.612E-04 0.612E-04 0.415E-07   0.673E-05 0.673E-05 0.239E-14   -.169E-20 0.339E-20 0.000E+00   -.167E-05 -.167E-05 0.102E-12
   -.904E+00 -.904E+00 -.124E-06   0.812E+00 0.812E+00 0.722E-15   0.983E-01 0.983E-01 0.000E+00   -.441E-02 -.441E-02 -.684E-13
   0.643E+01 0.306E+01 0.196E-07   -.634E+01 -.137E+01 0.278E-15   -.898E-01 -.170E+01 0.000E+00   -.239E-02 0.380E-02 0.792E-15
   0.564E+01 0.111E+01 0.512E-07   -.512E+01 -.101E+01 0.150E-14   -.519E+00 -.961E-01 0.000E+00   -.380E-02 0.406E-02 -.529E-13
   0.306E+01 0.643E+01 0.196E-07   -.137E+01 -.634E+01 -.289E-14   -.170E+01 -.898E-01 0.000E+00   0.380E-02 -.239E-02 0.200E-12
   0.111E+01 0.564E+01 0.512E-07   -.101E+01 -.512E+01 -.250E-14   -.961E-01 -.519E+00 0.000E+00   0.406E-02 -.380E-02 0.254E-13
   -.551E+01 -.551E+01 -.125E-06   0.594E+01 0.594E+01 0.250E-14   -.426E+00 -.426E+00 0.000E+00   0.302E-02 0.302E-02 0.105E-12
   -.797E+01 -.797E+01 -.796E-07   0.597E+01 0.597E+01 -.450E-14   0.201E+01 0.201E+01 0.000E+00   0.275E-02 0.275E-02 -.385E-14
   0.484E+01 -.484E+01 0.914E+01   -.426E+01 0.426E+01 -.890E+01   -.570E+00 0.570E+00 -.236E+00   -.433E-02 0.433E-02 0.293E-02
   0.484E+01 -.484E+01 -.914E+01   -.426E+01 0.426E+01 0.890E+01   -.570E+00 0.570E+00 0.236E+00   -.433E-02 0.433E-02 -.293E-02
   0.155E+01 0.470E+01 0.120E+02   -.106E+01 -.499E+01 -.116E+02   -.486E+00 0.301E+00 -.410E+00   -.397E-02 -.470E-02 0.240E-02
   0.155E+01 0.470E+01 -.120E+02   -.106E+01 -.499E+01 0.116E+02   -.486E+00 0.301E+00 0.410E+00   -.397E-02 -.470E-02 -.240E-02
   -.470E+01 -.155E+01 0.120E+02   0.499E+01 0.106E+01 -.116E+02   -.301E+00 0.486E+00 -.410E+00   0.470E-02 0.397E-02 0.240E-02
   -.470E+01 -.155E+01 -.120E+02   0.499E+01 0.106E+01 0.116E+02   -.301E+00 0.486E+00 0.410E+00   0.470E-02 0.397E-02 -.240E-02
   -.748E+00 0.748E+00 0.133E+02   0.719E+00 -.719E+00 -.114E+02   0.236E-01 -.236E-01 -.198E+01   0.387E-02 -.387E-02 0.191E-02
   -.748E+00 0.748E+00 -.133E+02   0.719E+00 -.719E+00 0.114E+02   0.236E-01 -.236E-01 0.198E+01   0.387E-02 -.387E-02 -.191E-02
   -.484E+01 0.484E+01 0.914E+01   0.426E+01 -.426E+01 -.890E+01   0.570E+00 -.570E+00 -.236E+00   0.433E-02 -.433E-02 0.293E-02
   -.484E+01 0.484E+01 -.914E+01   0.426E+01 -.426E+01 0.890E+01   0.570E+00 -.570E+00 0.236E+00   0.433E-02 -.433E-02 -.293E-02
   -.155E+01 -.470E+01 0.120E+02   0.106E+01 0.499E+01 -.116E+02   0.486E+00 -.301E+00 -.410E+00   0.397E-02 0.470E-02 0.240E-02
   -.155E+01 -.470E+01 -.120E+02   0.106E+01 0.499E+01 0.116E+02   0.486E+00 -.301E+00 0.410E+00   0.397E-02 0.470E-02 -.240E-02
   0.470E+01 0.155E+01 0.120E+02   -.499E+01 -.106E+01 -.116E+02   0.301E+00 -.486E+00 -.410E+00   -.470E-02 -.397E-02 0.240E-02
   0.470E+01 0.155E+01 -.120E+02   -.499E+01 -.106E+01 0.116E+02   0.301E+00 -.486E+00 0.410E+00   -.470E-02 -.397E-02 -.240E-02
   0.748E+00 -.748E+00 0.133E+02   -.719E+00 0.719E+00 -.114E+02   -.236E-01 0.236E-01 -.198E+01   -.387E-02 0.387E-02 0.191E-02
   0.748E+00 -.748E+00 -.133E+02   -.719E+00 0.719E+00 0.114E+02   -.236E-01 0.236E-01 0.198E+01   -.387E-02 0.387E-02 -.191E-02
 -----------------------------------------------------------------------------------------------
   0.421E-04 0.421E-04 -.312E-06   0.533E-14 0.121E-13 0.355E-14   -.382E-15 0.829E-15 0.000E+00   -.411E-07 -.411E-07 -.138E-12
 
 
 POSITION                                       TOTAL-FORCE (eV/Angst)
 -----------------------------------------------------------------------------------
      0.02520      0.02520      3.99473        -0.001411     -0.001411      0.000000
      0.07326      3.89506      0.00000        -0.000141      0.001763      0.000000
     -0.00522      4.07243      3.99473         0.000220     -0.001593      0.000000
      3.89506      0.07326      0.00000         0.001763     -0.000141      0.000000
      4.07243     -0.00522      3.99473        -0.001593      0.000220      0.000000
      4.02586      4.02586      0.00000        -0.009567     -0.009567      0.000000
      4.09909      4.09909      3.99473        -0.005887     -0.005887      0.000000
      1.03090      1.03090      0.00000         0.000000      0.000000      0.000000
      2.03659      2.03659      3.99473         0.001411      0.001411      0.000000
      1.98854      6.15620      0.00000         0.000141     -0.001763      0.000000
      2.06702      5.97883      3.99473        -0.000220      0.001593      0.000000
      6.15620      1.98854      0.00000        -0.001763      0.000141      0.000000
      5.97883      2.06702      3.99473         0.001593     -0.000220      0.000000
      6.02540      6.02540      0.00000         0.009567      0.009567      0.000000
      5.95217      5.95217      3.99473         0.005887      0.005887      0.000000
      2.08650     -0.02470      2.13875         0.002170     -0.002170      0.003790
      2.08650     -0.02470      5.85072         0.002170     -0.002170     -0.003790
      2.05126      4.01367      2.00591         0.000121      0.010428      0.004955
      2.05126      4.01367      5.98355         0.000121      0.010428     -0.004955
      6.03759      0.01054      2.00591        -0.010428     -0.000121      0.004955
      6.03759      0.01054      5.98355        -0.010428     -0.000121     -0.004955
      6.02011      4.03115      2.08547        -0.001870      0.001870     -0.002292
      6.02011      4.03115      5.90399        -0.001870      0.001870      0.002292
     -0.02470      2.08650      2.13875        -0.002170      0.002170      0.003790
     -0.02470      2.08650      5.85072        -0.002170      0.002170     -0.003790
      0.01054      6.03759      2.00591        -0.000121     -0.010428      0.004955
      0.01054      6.03759      5.98355        -0.000121     -0.010428     -0.004955
      4.01367      2.05126      2.00591         0.010428      0.000121      0.004955
      4.01367      2.05126      5.98355         0.010428      0.000121     -0.004955
      4.03115      6.02011      2.08547         0.001870     -0.001870     -0.002292
      4.03115      6.02011      5.90399         0.001870     -0.001870      0.002292
 -----------------------------------------------------------------------------------
    total drift:                                0.000042      0.000042      0.000000
 d Force = 0.1083840E-03[ 0.821E-04, 0.135E-03]  d Energy = 0.1130715E-03-0.469E-05
 d Force =-0.1420918E-01[-0.145E-01,-0.139E-01]  d Ewald  =-0.1421008E-01 0.904E-06


--------------------------------------------------------------------------------------------------------


    POTLOK:  cpu time    1.20: real time    1.20


--------------------------------------------------------------------------------------------------------


 NEB: the previous image is higher in energy: F
 NEB: the next image is higher in energy    : F
 NEB: image is at an extrema
 NEB: diff energy (min, max):     0.102628    0.102633

 NEB: Tangent
 ----------------------------------------------
     -0.00310     -0.00310      0.00000
      0.05078      0.00834      0.00000
     -0.01336      0.04691      0.00000
      0.00834      0.05078      0.00000
      0.04691     -0.01336      0.00000
      0.02366      0.02366      0.00000
      0.03083      0.03083      0.00000
     -0.68825     -0.68825      0.00000
     -0.00310     -0.00310      0.00000
      0.05079      0.00834      0.00000
     -0.01336      0.04692      0.00000
      0.00834      0.05079      0.00000
      0.04692     -0.01336      0.00000
      0.02365      0.02365      0.00000
      0.03084      0.03084      0.00000
      0.00999      0.00999      0.00000
      0.00999      0.00999      0.00000
      0.03003      0.04562     -0.00382
      0.03003      0.04562      0.00382
      0.04562      0.03003      0.00382
      0.04562      0.03003     -0.00382
      0.01439      0.01439      0.00000
      0.01439      0.01439      0.00000
      0.00999      0.00999      0.00000
      0.00999      0.00999      0.00000
      0.03003      0.04562      0.00382
      0.03003      0.04562     -0.00382
      0.04562      0.03003     -0.00382
      0.04562      0.03003      0.00382
      0.01439      0.01439      0.00000
      0.01439      0.01439      0.00000

 NEB: forces: par spring, perp REAL, dneb     0.000024    0.041786    0.000000
 NEB: distance to prev, next image, angle between     0.811539    0.811534  158.158571
 NEB: projections on to tangent (spring, REAL)    -0.000024    0.000000

  FORCES: max atom, RMS     0.013530    0.007505
  FORCE total and by dimension    0.041786    0.010428
 Quasi-Newton relaxation of ions (Broydens 2nd method)
  g(Force)  = 0.311E-03   g(Stress)= 0.000E+00

 retain information from N=  1 steps
 eigenvalues of (default step * inverse Hessian matrix)
  average eigenvalue of G=   5.2467
 eigenvalue spectrum of G is  5.2467


--------------------------------------------------------------------------------------------------------

