  31  31   0   0
  0.1706110E+02  0.8087040E-09  0.8087040E-09  0.8087040E-09  0.5000000E-15
  1.000000000000000E-004
  CAR 
 unknown system                          
     12.56709557     -5.03916298  301      7.75244045      1.00000000
     -5.039  0.0000E+00  0.0000E+00
     -4.980  0.0000E+00  0.0000E+00
     -4.922  0.0000E+00  0.0000E+00
     -4.863  0.0000E+00  0.0000E+00
     -4.804  0.0000E+00  0.0000E+00
     -4.746  0.0000E+00  0.0000E+00
     -4.687 -0.2446E-27 -0.1435E-28
     -4.628 -0.2706E-25 -0.1603E-26
     -4.570 -0.2536E-23 -0.1504E-24
     -4.511 -0.1996E-21 -0.1187E-22
     -4.452 -0.1320E-19 -0.7868E-21
     -4.394 -0.7336E-18 -0.4384E-19
     -4.335 -0.3423E-16 -0.2052E-17
     -4.276 -0.1341E-14 -0.8073E-16
     -4.218 -0.4217E-13 -0.2556E-14
     -4.159 -0.1177E-11 -0.7164E-13
     -4.100 -0.2711E-10 -0.1663E-11
     -4.041 -0.5229E-09 -0.3235E-10
     -3.983 -0.8441E-08 -0.5277E-09
     -3.924 -0.1139E-06 -0.7211E-08
     -3.865 -0.1282E-05 -0.8247E-07
     -3.807 -0.1203E-04 -0.7885E-06
     -3.748 -0.9381E-04 -0.6294E-05
     -3.689 -0.6061E-03 -0.4186E-04
     -3.631 -0.3229E-02 -0.2314E-03
     -3.572 -0.1409E-01 -0.1058E-02
     -3.513 -0.4982E-01 -0.3982E-02
     -3.455 -0.1399E+00 -0.1220E-01
     -3.396 -0.3003E+00 -0.2982E-01
     -3.337 -0.4429E+00 -0.5581E-01
     -3.279 -0.2542E+00 -0.7073E-01
     -3.220  0.7740E+00 -0.2530E-01
     -3.161  0.2947E+01  0.1477E+00
     -3.102  0.5785E+01  0.4872E+00
     -3.044  0.7957E+01  0.9542E+00
     -2.985  0.8168E+01  0.1434E+01
     -2.926  0.6283E+01  0.1802E+01
     -2.868  0.3452E+01  0.2005E+01
     -2.809  0.1090E+01  0.2069E+01
     -2.750 -0.1430E+00  0.2060E+01
     -2.692 -0.4468E+00  0.2034E+01
     -2.633 -0.3343E+00  0.2015E+01
     -2.574 -0.1685E+00  0.2005E+01
     -2.516 -0.7890E-01  0.2000E+01
     -2.457 -0.8389E-01  0.1995E+01
     -2.398 -0.2033E+00  0.1983E+01
     -2.340 -0.4722E+00  0.1956E+01
     -2.281 -0.8220E+00  0.1907E+01
     -2.222 -0.8487E+00  0.1857E+01
     -2.163  0.3032E+00  0.1875E+01
     -2.105  0.3537E+01  0.2083E+01
     -2.046  0.8860E+01  0.2603E+01
     -1.987  0.1475E+02  0.3468E+01
     -1.929  0.1883E+02  0.4573E+01
     -1.870  0.1949E+02  0.5717E+01
     -1.811  0.1687E+02  0.6707E+01
     -1.753  0.1231E+02  0.7430E+01
     -1.694  0.7414E+01  0.7865E+01
     -1.635  0.3358E+01  0.8062E+01
     -1.577  0.7532E+00  0.8106E+01
     -1.518 -0.4164E+00  0.8082E+01
     -1.459 -0.6280E+00  0.8045E+01
     -1.401 -0.4547E+00  0.8018E+01
     -1.342 -0.2830E+00  0.8002E+01
     -1.283 -0.2809E+00  0.7985E+01
     -1.224 -0.4853E+00  0.7957E+01
     -1.166 -0.7833E+00  0.7911E+01
     -1.107 -0.7331E+00  0.7868E+01
     -1.048  0.5150E+00  0.7898E+01
     -0.990  0.3761E+01  0.8119E+01
     -0.931  0.8771E+01  0.8633E+01
     -0.872  0.1375E+02  0.9440E+01
     -0.814  0.1637E+02  0.1040E+02
     -0.755  0.1573E+02  0.1132E+02
     -0.696  0.1309E+02  0.1209E+02
     -0.638  0.1045E+02  0.1271E+02
     -0.579  0.8553E+01  0.1321E+02
     -0.520  0.6839E+01  0.1361E+02
     -0.462  0.4712E+01  0.1389E+02
     -0.403  0.2424E+01  0.1403E+02
     -0.344  0.6595E+00  0.1407E+02
     -0.285 -0.2473E+00  0.1405E+02
     -0.227 -0.5188E+00  0.1402E+02
     -0.168 -0.6124E+00  0.1399E+02
     -0.109 -0.8527E+00  0.1394E+02
     -0.051 -0.1176E+01  0.1387E+02
      0.008 -0.9158E+00  0.1381E+02
      0.067  0.1159E+01  0.1388E+02
      0.125  0.6081E+01  0.1424E+02
      0.184  0.1334E+02  0.1502E+02
      0.243  0.2032E+02  0.1621E+02
      0.301  0.2378E+02  0.1761E+02
      0.360  0.2243E+02  0.1893E+02
      0.419  0.1792E+02  0.1998E+02
      0.477  0.1304E+02  0.2074E+02
      0.536  0.9331E+01  0.2129E+02
      0.595  0.6607E+01  0.2168E+02
      0.654  0.4194E+01  0.2192E+02
      0.712  0.2015E+01  0.2204E+02
      0.771  0.4288E+00  0.2207E+02
      0.830 -0.4132E+00  0.2204E+02
      0.888 -0.7971E+00  0.2200E+02
      0.947 -0.1140E+01  0.2193E+02
      1.006 -0.1506E+01  0.2184E+02
      1.064 -0.1207E+01  0.2177E+02
      1.123  0.1192E+01  0.2184E+02
      1.182  0.6991E+01  0.2225E+02
      1.240  0.1584E+02  0.2318E+02
      1.299  0.2497E+02  0.2464E+02
      1.358  0.3062E+02  0.2644E+02
      1.416  0.3062E+02  0.2824E+02
      1.475  0.2575E+02  0.2975E+02
      1.534  0.1870E+02  0.3085E+02
      1.593  0.1214E+02  0.3156E+02
      1.651  0.7841E+01  0.3202E+02
      1.710  0.6336E+01  0.3239E+02
      1.769  0.6817E+01  0.3279E+02
      1.827  0.7496E+01  0.3323E+02
      1.886  0.6847E+01  0.3363E+02
      1.945  0.4727E+01  0.3391E+02
      2.003  0.2176E+01  0.3404E+02
      2.062  0.2411E+00  0.3405E+02
      2.121 -0.8084E+00  0.3401E+02
      2.179 -0.1246E+01  0.3393E+02
      2.238 -0.1131E+01  0.3387E+02
      2.297  0.1367E+00  0.3387E+02
      2.355  0.3440E+01  0.3408E+02
      2.414  0.8912E+01  0.3460E+02
      2.473  0.1513E+02  0.3549E+02
      2.532  0.1963E+02  0.3664E+02
      2.590  0.2044E+02  0.3784E+02
      2.649  0.1743E+02  0.3886E+02
      2.708  0.1214E+02  0.3957E+02
      2.766  0.6620E+01  0.3996E+02
      2.825  0.2413E+01  0.4010E+02
      2.884  0.8373E-02  0.4010E+02
      2.942 -0.9929E+00  0.4005E+02
      3.001 -0.1334E+01  0.3997E+02
      3.060 -0.1449E+01  0.3988E+02
      3.118 -0.1035E+01  0.3982E+02
      3.177  0.8858E+00  0.3987E+02
      3.236  0.5257E+01  0.4018E+02
      3.294  0.1198E+02  0.4089E+02
      3.353  0.1951E+02  0.4203E+02
      3.412  0.2563E+02  0.4354E+02
      3.471  0.2872E+02  0.4522E+02
      3.529  0.2836E+02  0.4688E+02
      3.588  0.2520E+02  0.4836E+02
      3.647  0.2066E+02  0.4958E+02
      3.705  0.1650E+02  0.5054E+02
      3.764  0.1417E+02  0.5138E+02
      3.823  0.1402E+02  0.5220E+02
      3.881  0.1542E+02  0.5310E+02
      3.940  0.1745E+02  0.5413E+02
      3.999  0.1967E+02  0.5528E+02
      4.057  0.2185E+02  0.5656E+02
      4.116  0.2329E+02  0.5793E+02
      4.175  0.2273E+02  0.5927E+02
      4.233  0.1930E+02  0.6040E+02
      4.292  0.1357E+02  0.6119E+02
      4.351  0.7724E+01  0.6165E+02
      4.410  0.4553E+01  0.6192E+02
      4.468  0.6052E+01  0.6227E+02
      4.527  0.1212E+02  0.6298E+02
      4.586  0.2034E+02  0.6418E+02
      4.644  0.2733E+02  0.6578E+02
      4.703  0.3092E+02  0.6759E+02
      4.762  0.3115E+02  0.6942E+02
      4.820  0.2953E+02  0.7116E+02
      4.879  0.2744E+02  0.7277E+02
      4.938  0.2531E+02  0.7425E+02
      4.996  0.2273E+02  0.7558E+02
      5.055  0.1939E+02  0.7672E+02
      5.114  0.1566E+02  0.7764E+02
      5.172  0.1233E+02  0.7837E+02
      5.231  0.9817E+01  0.7894E+02
      5.290  0.7725E+01  0.7939E+02
      5.349  0.5461E+01  0.7972E+02
      5.407  0.3007E+01  0.7989E+02
      5.466  0.1120E+01  0.7996E+02
      5.525  0.8345E+00  0.8001E+02
      5.583  0.2684E+01  0.8016E+02
      5.642  0.6144E+01  0.8052E+02
      5.701  0.9719E+01  0.8109E+02
      5.759  0.1180E+02  0.8179E+02
      5.818  0.1167E+02  0.8247E+02
      5.877  0.9832E+01  0.8305E+02
      5.935  0.7330E+01  0.8348E+02
      5.994  0.5170E+01  0.8378E+02
      6.053  0.4064E+01  0.8402E+02
      6.111  0.4307E+01  0.8427E+02
      6.170  0.5518E+01  0.8460E+02
      6.229  0.6668E+01  0.8499E+02
      6.288  0.6669E+01  0.8538E+02
      6.346  0.5111E+01  0.8568E+02
      6.405  0.2558E+01  0.8583E+02
      6.464  0.3327E+00  0.8585E+02
      6.522  0.7690E-01  0.8585E+02
      6.581  0.3117E+01  0.8604E+02
      6.640  0.9503E+01  0.8660E+02
      6.698  0.1738E+02  0.8762E+02
      6.757  0.2395E+02  0.8902E+02
      6.816  0.2774E+02  0.9065E+02
      6.874  0.2967E+02  0.9239E+02
      6.933  0.3121E+02  0.9422E+02
      6.992  0.3183E+02  0.9609E+02
      7.050  0.2926E+02  0.9781E+02
      7.109  0.2242E+02  0.9912E+02
      7.168  0.1324E+02  0.9990E+02
      7.227  0.5141E+01  0.1002E+03
      7.285  0.2872E+00  0.1002E+03
      7.344 -0.1483E+01  0.1001E+03
      7.403 -0.1639E+01  0.1000E+03
      7.461 -0.1477E+01  0.9995E+02
      7.520 -0.1365E+01  0.9987E+02
      7.579 -0.7082E+00  0.9983E+02
      7.637  0.1612E+01  0.9992E+02
      7.696  0.6303E+01  0.1003E+03
      7.755  0.1268E+02  0.1010E+03
      7.813  0.1873E+02  0.1021E+03
      7.872  0.2275E+02  0.1035E+03
      7.931  0.2505E+02  0.1049E+03
      7.989  0.2752E+02  0.1066E+03
      8.048  0.3132E+02  0.1084E+03
      8.107  0.3525E+02  0.1105E+03
      8.166  0.3663E+02  0.1126E+03
      8.224  0.3360E+02  0.1146E+03
      8.283  0.2665E+02  0.1161E+03
      8.342  0.1802E+02  0.1172E+03
      8.400  0.1014E+02  0.1178E+03
      8.459  0.4450E+01  0.1181E+03
      8.518  0.1120E+01  0.1181E+03
      8.576 -0.4159E+00  0.1181E+03
      8.635 -0.9339E+00  0.1180E+03
      8.694 -0.1092E+01  0.1180E+03
      8.752 -0.1201E+01  0.1179E+03
      8.811 -0.1017E+01  0.1179E+03
      8.870  0.2857E+00  0.1179E+03
      8.928  0.3639E+01  0.1181E+03
      8.987  0.9129E+01  0.1186E+03
      9.046  0.1534E+02  0.1195E+03
      9.105  0.2003E+02  0.1207E+03
      9.163  0.2194E+02  0.1220E+03
      9.222  0.2203E+02  0.1233E+03
      9.281  0.2235E+02  0.1246E+03
      9.339  0.2359E+02  0.1260E+03
      9.398  0.2401E+02  0.1274E+03
      9.457  0.2126E+02  0.1286E+03
      9.515  0.1495E+02  0.1295E+03
      9.574  0.7251E+01  0.1299E+03
      9.633  0.1153E+01  0.1300E+03
      9.691 -0.1274E+01  0.1299E+03
      9.750  0.8660E+00  0.1300E+03
      9.809  0.7600E+01  0.1304E+03
      9.867  0.1766E+02  0.1315E+03
      9.926  0.2800E+02  0.1331E+03
      9.985  0.3477E+02  0.1351E+03
     10.044  0.3569E+02  0.1372E+03
     10.102  0.3128E+02  0.1391E+03
     10.161  0.2382E+02  0.1405E+03
     10.220  0.1563E+02  0.1414E+03
     10.278  0.8378E+01  0.1419E+03
     10.337  0.3432E+01  0.1421E+03
     10.396  0.1720E+01  0.1422E+03
     10.454  0.3038E+01  0.1424E+03
     10.513  0.5770E+01  0.1427E+03
     10.572  0.7695E+01  0.1432E+03
     10.630  0.7418E+01  0.1436E+03
     10.689  0.5215E+01  0.1439E+03
     10.748  0.2499E+01  0.1440E+03
     10.806  0.5362E+00  0.1441E+03
     10.865 -0.3188E+00  0.1441E+03
     10.924 -0.4265E+00  0.1440E+03
     10.983 -0.2704E+00  0.1440E+03
     11.041 -0.1210E+00  0.1440E+03
     11.100 -0.4172E-01  0.1440E+03
     11.159 -0.1149E-01  0.1440E+03
     11.217 -0.2569E-02  0.1440E+03
     11.276 -0.4716E-03  0.1440E+03
     11.335 -0.7151E-04  0.1440E+03
     11.393 -0.8997E-05  0.1440E+03
     11.452 -0.9420E-06  0.1440E+03
     11.511 -0.8227E-07  0.1440E+03
     11.569 -0.6002E-08  0.1440E+03
     11.628 -0.3664E-09  0.1440E+03
     11.687 -0.1873E-10  0.1440E+03
     11.745 -0.8021E-12  0.1440E+03
     11.804 -0.3027E-13  0.1440E+03
     11.863  0.0000E+00  0.1440E+03
     11.922  0.0000E+00  0.1440E+03
     11.980  0.0000E+00  0.1440E+03
     12.039  0.0000E+00  0.1440E+03
     12.098  0.0000E+00  0.1440E+03
     12.156  0.0000E+00  0.1440E+03
     12.215  0.0000E+00  0.1440E+03
     12.274  0.0000E+00  0.1440E+03
     12.332  0.0000E+00  0.1440E+03
     12.391  0.0000E+00  0.1440E+03
     12.450  0.0000E+00  0.1440E+03
     12.508  0.0000E+00  0.1440E+03
     12.567  0.0000E+00  0.1440E+03
