   31   31    1    1
  0.1706110E+02  0.8087040E-09  0.8087040E-09  0.8087040E-09  0.5000000E-15
  1.000000000000000E-004
  CAR 
 unknown system                          
  101    2   72
 
  0.2500000E+00  0.2500000E+00  0.2500000E+00  0.5000000E+00
   1       -3.039163
   2       -1.976353
   3       -1.923918
   4       -1.805397
   5       -0.865060
   6       -0.804144
   7       -0.623682
   8        0.236758
   9        0.273571
  10        0.308240
  11        0.561320
  12        1.292440
  13        1.314742
  14        1.381383
  15        1.400583
  16        1.528474
  17        1.791959
  18        2.467012
  19        2.532846
  20        2.660050
  21        3.320983
  22        3.373955
  23        3.453844
  24        3.528757
  25        3.599582
  26        3.710315
  27        3.879164
  28        3.986696
  29        4.109196
  30        4.169432
  31        4.217923
  32        4.592567
  33        4.630915
  34        4.669116
  35        4.760252
  36        4.804452
  37        4.917826
  38        4.959875
  39        5.006976
  40        5.301200
  41        5.703164
  42        5.932956
  43        6.177618
  44        6.712918
  45        6.772763
  46        6.805729
  47        6.939105
  48        6.982029
  49        7.016559
  50        7.044335
  51        7.782043
  52        7.865491
  53        7.937971
  54        8.030248
  55        8.045985
  56        8.079399
  57        8.147288
  58        8.182204
  59        8.253640
  60        9.083734
  61        9.134725
  62        9.216392
  63        9.358716
  64        9.381758
  65        9.437856
  66        9.859103
  67        9.910491
  68        9.980174
  69       10.026805
  70       10.056601
  71       10.151312
  72       10.567096
 
 -0.2500000E+00  0.2500000E+00  0.2500000E+00  0.5000000E+00
   1       -3.037578
   2       -1.975845
   3       -1.953626
   4       -1.781225
   5       -0.865140
   6       -0.831543
   7       -0.553402
   8        0.235514
   9        0.248792
  10        0.341909
  11        0.482243
  12        1.284576
  13        1.308077
  14        1.328090
  15        1.436706
  16        1.549448
  17        1.826506
  18        2.503312
  19        2.511177
  20        2.634734
  21        3.353609
  22        3.377069
  23        3.476893
  24        3.535999
  25        3.586443
  26        3.775199
  27        3.885299
  28        3.971404
  29        4.114579
  30        4.117256
  31        4.286718
  32        4.551106
  33        4.621503
  34        4.630494
  35        4.764024
  36        4.788372
  37        4.877047
  38        4.999545
  39        5.095820
  40        5.203441
  41        5.699779
  42        5.800939
  43        6.290889
  44        6.712074
  45        6.741648
  46        6.750139
  47        6.902465
  48        6.986067
  49        7.018576
  50        7.063067
  51        7.782177
  52        7.825575
  53        7.862064
  54        8.076864
  55        8.089471
  56        8.166356
  57        8.209418
  58        8.245434
  59        8.371104
  60        9.025515
  61        9.067455
  62        9.143732
  63        9.307695
  64        9.405117
  65        9.429370
  66        9.950768
  67        9.954628
  68        9.964645
  69        9.979094
  70       10.159353
  71       10.174738
  72       10.545797
