 vasp.5.2.2 15Apr09 complex 
 executed on             LinuxIFC date 2017.01.11  13:35:57
 running on   12 nodes
 distr:  one band on    1 nodes,   12 groups


--------------------------------------------------------------------------------------------------------


 INCAR:
 POTCAR:   PAW_PBE Al 04Jan2001                   
 POTCAR:   PAW_PBE Cu 05Jan2001                   
 POTCAR:   PAW_PBE Al 04Jan2001                   
   VRHFIN =Al: s2p1                                                             
   LEXCH  = PE                                                                  
   EATOM  =    53.5387 eV,    3.9350 Ry                                         
                                                                                
   TITEL  = PAW_PBE Al 04Jan2001                                                
   LULTRA =        F    use ultrasoft PP ?                                      
   IUNSCR =        1    unscreen: 0-lin 1-nonlin 2-no                           
   RPACOR =    1.500    partial core radius                                     
   POMASS =   26.982; ZVAL   =    3.000    mass and valenz                      
   RCORE  =    1.900    outmost cutoff radius                                   
   RWIGS  =    2.650; RWIGS  =    1.402    wigner-seitz radius (au A)           
   ENMAX  =  240.300; ENMIN  =  180.225 eV                                      
   ICORE  =        2    local potential                                         
   LCOR   =        T    correct aug charges                                     
   LPAW   =        T    paw PP                                                  
   EAUG   =  291.052                                                            
   DEXC   =    -.041                                                            
   RMAX   =    2.974    core radius for proj-oper                               
   RAUG   =    1.300    factor for augmentation sphere                          
   RDEP   =    1.966    radius for radial grids                                 
   QCUT   =   -4.203; QGAM   =    8.405    optimization parameters              
                                                                                
   Description                                                                  
     l     E      TYP  RCUT    TYP  RCUT                                        
     0   .000     23  1.900                                                     
     0   .000     23  1.900                                                     
     1   .000     23  1.900                                                     
     1  1.000     23  1.900                                                     
     2   .000      7  1.900                                                     
  local pseudopotential read in
  partial core-charges read in
  atomic valenz-charges read in
  non local Contribution for L=           0  read in
    real space projection operators read in
  non local Contribution for L=           0  read in
    real space projection operators read in
  non local Contribution for L=           1  read in
    real space projection operators read in
  non local Contribution for L=           1  read in
    real space projection operators read in
    PAW grid and wavefunctions read in
 
   number of l-projection  operators is LMAX  =           4
   number of lm-projection operators is LMMAX =           8
 
 POTCAR:   PAW_PBE Cu 05Jan2001                   
   VRHFIN =Cu: d10 p1                                                           
   LEXCH  = PE                                                                  
   EATOM  =  1390.9800 eV,  102.2341 Ry                                         
                                                                                
   TITEL  = PAW_PBE Cu 05Jan2001                                                
   LULTRA =        F    use ultrasoft PP ?                                      
   IUNSCR =        1    unscreen: 0-lin 1-nonlin 2-no                           
   RPACOR =    2.000    partial core radius                                     
   POMASS =   63.546; ZVAL   =   11.000    mass and valenz                      
   RCORE  =    2.300    outmost cutoff radius                                   
   RWIGS  =    2.480; RWIGS  =    1.312    wigner-seitz radius (au A)           
   ENMAX  =  273.214; ENMIN  =  204.910 eV                                      
   RCLOC  =    1.712    cutoff for local pot                                    
   LCOR   =        T    correct aug charges                                     
   LPAW   =        T    paw PP                                                  
   EAUG   =  516.456                                                            
   DEXC   =    -.008                                                            
   RMAX   =    2.789    core radius for proj-oper                               
   RAUG   =    1.300    factor for augmentation sphere                          
   RDEP   =    2.302    radius for radial grids                                 
   QCUT   =   -4.481; QGAM   =    8.962    optimization parameters              
                                                                                
   Description                                                                  
     l     E      TYP  RCUT    TYP  RCUT                                        
     2   .000     23  2.300                                                     
     2   .000     23  2.300                                                     
     0   .000     23  2.300                                                     
     0   .000     23  2.300                                                     
     1  -.200     23  2.300                                                     
     1   .000     23  2.300                                                     
     3   .000      7   .000                                                     
  local pseudopotential read in
  partial core-charges read in
  atomic valenz-charges read in
  non local Contribution for L=           2  read in
    real space projection operators read in
  non local Contribution for L=           2  read in
    real space projection operators read in
  non local Contribution for L=           0  read in
    real space projection operators read in
  non local Contribution for L=           0  read in
    real space projection operators read in
  non local Contribution for L=           1  read in
    real space projection operators read in
  non local Contribution for L=           1  read in
    real space projection operators read in
    PAW grid and wavefunctions read in
 
   number of l-projection  operators is LMAX  =           6
   number of lm-projection operators is LMMAX =          18
 

 ----------------------------------------------------------------------------- 
|                                                                             |
|  ADVICE TO THIS USER RUNNING 'VASP/VAMP'   (HEAR YOUR MASTER'S VOICE ...):  |
|                                                                             |
|      You have a (more or less) 'large supercell' and for larger cells       |
|      it might be more efficient to use real space projection operators      |
|      So try LREAL= Auto  in the INCAR   file.                               |
|      Mind: If you want to do a very accurate calculations keep the          |
|      reciprocal projection scheme          (i.e. LREAL=.FALSE.)             |
|                                                                             |
 ----------------------------------------------------------------------------- 

 PAW_PBE Al 04Jan2001                   :
 energy of atom  1       EATOM=  -53.5387
 kinetic energy error for atom=    0.0011 (will be added to EATOM!!)
 PAW_PBE Cu 05Jan2001                   :
 energy of atom  2       EATOM=-1390.9800
 kinetic energy error for atom=    0.0323 (will be added to EATOM!!)
 
 
 POSCAR: Al30 Cu1                                
  positions in direct lattice
  velocities in cartesian coordinates
 exchange correlation table for  LEXCH =        8
   RHO(1)=    0.500       N(1)  =     2000
   RHO(2)=  100.500       N(2)  =     4000

 VTST: version 2.03d, (02/18/09)

 CHAIN: initializing optimizer
 
 OPT: Using VASP Dynamics algorithm
 CHAIN: Read ICHAIN            0
 


--------------------------------------------------------------------------------------------------------


 ion  position               nearest neighbor table
   1  0.998  0.998  0.999-  14 2.83  20 2.83  26 2.83  11 2.84  10 2.86   7 2.87   6 2.87  18 2.88
                            17 2.89   4 2.89   3 2.90   2 2.92
   2  0.254  0.010  0.254-  19 2.76  31 2.77   3 2.80   4 2.80  16 2.84   5 2.84  25 2.89  15 2.90
                             1 2.92  10 2.94  11 2.96
   3  0.253  0.250  0.005-   2 2.80   9 2.80  31 2.81  12 2.83   5 2.83   4 2.84  22 2.88  24 2.88
                            17 2.88   1 2.90   8 2.90  18 2.91
   4  0.004  0.250  0.253-   2 2.80   9 2.80  16 2.82  23 2.82   3 2.84  21 2.88  13 2.89   6 2.89
                             8 2.89   1 2.89   7 2.90
   5  0.501  0.004  0.004-   6 2.80  31 2.82   3 2.83   7 2.83   2 2.84  15 2.85  20 2.87  10 2.88
                            14 2.88  22 2.89  30 2.89  17 2.90
   6  0.746  0.004  0.249-   5 2.80  31 2.82  21 2.83   7 2.83  19 2.84  15 2.85   1 2.87  29 2.88
                            14 2.88   4 2.89  11 2.89  16 2.90
   7  0.749  0.250  0.001-   5 2.83   6 2.83  12 2.83  13 2.83  31 2.85   8 2.87   1 2.87  28 2.87
                            20 2.87  18 2.90   4 2.90  22 2.90
   8  0.998  0.502  0.999-  14 2.83  28 2.83  26 2.83  11 2.84  10 2.86   7 2.87  13 2.87  18 2.88
                            24 2.89   4 2.89   3 2.90   9 2.92
   9  0.254  0.490  0.254-  27 2.76  31 2.77   3 2.80   4 2.80  23 2.84  12 2.84  25 2.89  15 2.90
                             8 2.92  10 2.94  11 2.96
  10  0.251  0.750  1.000-  30 2.85  15 2.85   1 2.86   8 2.86  26 2.86  11 2.87  12 2.88   5 2.88
                            17 2.90  24 2.90   9 2.94   2 2.94
  11  0.997  0.750  0.248-  14 2.83   8 2.84   1 2.84  29 2.85  10 2.87  25 2.89  13 2.89   6 2.89
                            16 2.89  23 2.89   9 2.96   2 2.96
  12  0.501  0.496  0.004-  13 2.80  31 2.82   3 2.83   7 2.83   9 2.84  15 2.85  28 2.87  10 2.88
                            14 2.88  22 2.89  30 2.89  24 2.90
  13  0.746  0.496  0.249-  12 2.80  31 2.82  21 2.83   7 2.83  27 2.84  15 2.85   8 2.87  29 2.88
                            14 2.88   4 2.89  11 2.89  23 2.90
  14  0.751  0.750  0.999-  26 2.83   8 2.83  20 2.83   1 2.83  28 2.83  11 2.83  30 2.83  15 2.86
                             6 2.88  12 2.88  13 2.88   5 2.88
  15  0.501  0.750  0.249-   5 2.85   6 2.85  12 2.85  13 2.85  10 2.85  29 2.85  14 2.86  25 2.87
                             2 2.90   9 2.90  27 2.90  19 2.90
  16  0.003  0.004  0.500-   4 2.82  18 2.82  17 2.83   2 2.84  25 2.86  21 2.88  20 2.89  11 2.89
                            26 2.90  29 2.90   6 2.90
  17  0.250  0.004  0.747-  22 2.82  18 2.82  16 2.83  19 2.84  25 2.86   3 2.88   1 2.89  30 2.89
                            26 2.90  10 2.90   5 2.90
  18  0.003  0.250  0.747-  16 2.82  17 2.82  23 2.82  24 2.82  20 2.88   1 2.88   8 2.88  28 2.88
                             7 2.90  21 2.91   3 2.91
  19  0.496  0.010  0.496-   2 2.76  31 2.77  21 2.80  22 2.80  17 2.84   6 2.84  25 2.89  15 2.90
                            20 2.92  29 2.94  30 2.96
  20  0.751  0.998  0.752-  14 2.83   1 2.83  26 2.83  30 2.84  29 2.86   7 2.87   5 2.87  18 2.88
                            16 2.89  22 2.89  21 2.90  19 2.92
  21  0.745  0.250  0.497-  19 2.80  27 2.80  31 2.81  13 2.83   6 2.83  22 2.84   4 2.88  16 2.88
                            23 2.88  28 2.90  20 2.90  18 2.91
  22  0.497  0.250  0.746-  19 2.80  27 2.80  24 2.82  17 2.82  21 2.84   3 2.88  12 2.89   5 2.89
                            20 2.89  28 2.89   7 2.90
  23  0.003  0.496  0.500-   4 2.82  18 2.82  24 2.83   9 2.84  25 2.86  21 2.88  28 2.89  11 2.89
                            26 2.90  29 2.90  13 2.90
  24  0.250  0.496  0.747-  22 2.82  18 2.82  23 2.83  27 2.84  25 2.86   3 2.88   8 2.89  30 2.89
                            26 2.90  10 2.90  12 2.90
  25  0.250  0.750  0.500-  16 2.86  17 2.86  23 2.86  24 2.86  15 2.87  26 2.88  11 2.89  30 2.89
                            27 2.89  19 2.89   2 2.89   9 2.89
  26  0.998  0.750  0.752-  14 2.83   8 2.83   1 2.83  20 2.83  28 2.83  10 2.86  29 2.86  25 2.88
                            24 2.90  17 2.90  16 2.90  23 2.90
  27  0.496  0.490  0.496-   9 2.76  31 2.77  21 2.80  22 2.80  24 2.84  13 2.84  25 2.89  15 2.90
                            28 2.92  29 2.94  30 2.96
  28  0.751  0.502  0.752-  14 2.83   8 2.83  26 2.83  30 2.84  29 2.86   7 2.87  12 2.87  18 2.88
                            23 2.89  22 2.89  21 2.90  27 2.92
  29  0.750  0.750  0.499-  11 2.85  15 2.85  20 2.86  28 2.86  26 2.86  30 2.87  13 2.88   6 2.88
                            23 2.90  16 2.90  19 2.94  27 2.94
  30  0.502  0.750  0.753-  14 2.83  20 2.84  28 2.84  10 2.85  29 2.87  25 2.89  12 2.89   5 2.89
                            24 2.89  17 2.89  19 2.96  27 2.96
  31  0.500  0.250  0.250-  19 2.77  27 2.77   2 2.77   9 2.77  21 2.81   3 2.81  13 2.82   6 2.82
                             5 2.82  12 2.82   7 2.85
 
  LATTYP: Found a simple cubic cell.
 ALAT       =     8.0870400000
  
  Lattice vectors:
  
 A1 = (   8.0870400000,   0.0000000000,   0.0000000000)
 A2 = (   0.0000000000,   8.0870400000,   0.0000000000)
 A3 = (   0.0000000000,   0.0000000000,   8.0870400000)
 Subroutine PRICEL returns:
 Original cell was already a primitive cell.
 

Analysis of symmetry for initial positions (statically):

 Routine SETGRP: Setting up the symmetry group for a 
 simple cubic supercell.


 Subroutine GETGRP returns: Found  4 space group operations
 (whereof  1 operations were pure point group operations)
 out of a pool of 48 trial point group operations.


The static configuration has the point symmetry C_1 .
 The point group associated with its full space group is C_2v.

Analysis of symmetry for dynamics (positions and initial velocities):

 Subroutine DYNSYM returns: Found  4 space group operations
 (whereof  1 operations were pure point group operations)
 out of a pool of  4 trial space group operations
 (whereof  1 operations were pure point group operations)
 and found also     1 'primitive' translations


The dynamic configuration has the point symmetry C_1 .
 The point group associated with its full space group is C_2v.
 
 
 KPOINTS: Automatic kpoint scheme                 

Automatic generation of k-mesh.
 
 Subroutine IBZKPT returns following result:
 ===========================================
 
 Found      2 irreducible k-points:
 
 Following reciprocal coordinates:
            Coordinates               Weight
  0.250000  0.250000  0.250000      4.000000
 -0.250000  0.250000  0.250000      4.000000
 
 Following cartesian coordinates:
            Coordinates               Weight
  0.030914  0.030914  0.030914      4.000000
 -0.030914  0.030914  0.030914      4.000000
 


--------------------------------------------------------------------------------------------------------




 Dimension of arrays:
   k-points           NKPTS =      2   k-points in BZ     NKDIM =      2   number of bands    NBANDS=     72
   number of dos      NEDOS =    301   number of ions     NIONS =     31
   non local maximal  LDIM  =      6   non local SUM 2l+1 LMDIM =     18
   total plane-waves  NPLWV = 110592
   max r-space proj   IRMAX =      1   max aug-charges    IRDMAX=   8337
   dimension x,y,z NGX =    48 NGY =   48 NGZ =   48
   dimension x,y,z NGXF=    96 NGYF=   96 NGZF=   96
   support grid    NGXF=    96 NGYF=   96 NGZF=   96
   ions per type =              30   1
 NGX,Y,Z   is equivalent  to a cutoff of   9.87,  9.87,  9.87 a.u.
 NGXF,Y,Z  is equivalent  to a cutoff of  19.73, 19.73, 19.73 a.u.


 I would recommend the setting:
   dimension x,y,z NGX =    46 NGY =   46 NGZ =   46
 SYSTEM =  unknown system                          
 POSCAR =  Al30 Cu1                                

 Startparameter for this run:
   NWRITE =      2    write-flag & timer
   PREC   = accura    medium, high low
   ISTART =      0    job   : 0-new  1-cont  2-samecut
   ICHARG =      2    charge: 1-file 2-atom 10-const
   ISPIN  =      1    spin polarized calculation?
   LNONCOLLINEAR =      F non collinear calculations
   LSORBIT =      F    spin-orbit coupling
   INIWAV =      1    electr: 0-lowe 1-rand  2-diag
   LASPH  =      F    aspherical Exc in radial PAW
   METAGGA=      F    non-selfconsistent MetaGGA calc.

 Electronic Relaxation 1
   ENCUT  =  300.0 eV  22.05 Ry    4.70 a.u.  11.42 11.42 11.42*2*pi/ulx,y,z
   ENINI  =  300.0     initial cutoff
   ENAUG  =  516.5 eV  augmentation charge cutoff
   NELM   =     60;   NELMIN=  2; NELMDL=-12     # of ELM steps 
   EDIFF  = 0.1E-03   stopping-criterion for ELM
   LREAL  =      F    real-space projection
   LCOMPAT=      F    compatible to vasp.4.4
   LREAL_COMPAT= F    compatible to vasp.4.5.1-3
   GGA_COMPAT  = T    GGA compatible to vasp.4.4-vasp.4.6
   LMAXPAW     = -100 max onsite density
   LMAXMIX     =    2 max onsite mixed and CHGCAR
   VOSKOWN=      0    Vosko Wilk Nusair interpolation
   ROPT   =    0.00000   0.00000
 Ionic relaxation
   EDIFFG = 0.5E-01   stopping-criterion for IOM
   NSW    =      0    number of steps for IOM
   NBLOCK =      1;   KBLOCK =      1    inner block; outer block 
   IBRION =     -1    ionic relax: 0-MD 1-quasi-New 2-CG
   NFREE  =      0    steps in history (QN), initial steepest desc. (CG)
   ISIF   =      2    stress and relaxation
   IWAVPR =     10    prediction:  0-non 1-charg 2-wave 3-comb
   ISYM   =      2    0-nonsym 1-usesym 2-fastsym
   LCORR  =      T    Harris-Foulkes like correction to forces

   POTIM  = 0.5000    time-step for ionic-motion
   TEIN   =    0.0    initial temperature
   TEBEG  =    0.0;   TEEND  =   0.0 temperature during run
   SMASS  =  -3.00    Nose mass-parameter (am)
   estimated Nose-frequenzy (Omega)   =  0.10E-29 period in steps =****** mass=  -0.149E-26a.u.
   NPACO  =    256;   APACO  = 16.0  distance and # of slots for P.C.
   PSTRESS=    0.0 pullay stress

  Mass of Ions in am
   POMASS =  26.98 63.55
  Ionic Valenz
   ZVAL   =   3.00 11.00
  Atomic Wigner-Seitz radii
   RWIGS  =  -1.00 -1.00
   NELECT =     101.0000    total number of electrons
   NUPDOWN=      -1.0000    fix difference up-down

 DOS related values:
   EMIN   =  10.00;   EMAX   =-10.00  energy-range for DOS
   EFERMI =   0.00
   ISMEAR =     1;   SIGMA  =   0.20  broadening in eV -4-tet -1-fermi 0-gaus

 Electronic relaxation 2 (details)
   IALGO  =     48    algorithm
   LDIAG  =      T    sub-space diagonalisation
   IMIX   =      4    mixing-type and parameters
     AMIX     =   0.40;   BMIX     =  1.00
     AMIX_MAG =   1.60;   BMIX_MAG =  1.00
     AMIN     =   0.10
     WC   =   100.;   INIMIX=   1;  MIXPRE=   1

 Intra band minimization:
   WEIMIN = 0.0000     energy-eigenvalue tresh-hold
   EBREAK =  0.38E-06  absolut break condition
   DEPER  =   0.30     relativ break condition  

   TIME   =   0.40     timestep for ELM

  volume/ion in A,a.u.               =      17.06       115.13
  Fermi-wavevector in a.u.,A,eV,Ry     =   0.942741  1.781522 12.092320  0.888760
  Thomas-Fermi vector in A             =   2.070380
 
 Write flags
   LWAVE  =      F    write WAVECAR
   LCHARG =      F    write CHGCAR
   LVTOT  =      F    write LOCPOT, local potential
   LELF   =      F    write electronic localiz. function (ELF)
   LORBIT =      0    0 simple, 1 ext, 2 COOP (PROOUT)


 Dipole corrections
   LMONO  =      F    monopole corrections only (constant potential shift)
   LDIPOL =      F    correct potential (dipole corrections)
   IDIPOL =      0    1-x, 2-y, 3-z, 4-all directions 
   EPSILON=  1.0000000 bulk dielectric constant

 Exchange correlation treatment:
   GGA     =    --    GGA type
   LEXCH   =     8    internal setting for exchange type
   VOSKOWN=      0    Vosko Wilk Nusair interpolation
   LHFCALC =     F    Hartree Fock is set to
   LHFONE  =     F    Hartree Fock one center treatment
   AEXX    =    0.0000 exact exchange contribution

 Linear response parameters
   LEPSILON=     F    determine dielectric tensor
   LRPA    =     F    only Hartree local field effects (RPA)
   LNABLA  =     F    use nabla operator in PAW spheres
   LVEL    =     F    velocity operator in full k-point grid
   LINTERFAST=   F  fast interpolation
   KINTER  =     0    interpolate to denser k-point grid
   CSHIFT  =0.1000    complex shift for real part using Kramers Kronig
   OMEGAMAX=  -1.0    maximum frequency

 Orbital magnetization related:
   ORBITALMAG=     F  switch on orbital magnetization
   LCHIMAG   =     F  perturbation theory with respect to B field



--------------------------------------------------------------------------------------------------------


 Static calculation
 charge density and potential will be updated during run
 non-spin polarized calculation
 RMM-DIIS sequential band-by-band
 perform sub-space diagonalisation
    before iterative eigenvector-optimisation
 modified Broyden-mixing scheme, WC =      100.0
 initial mixing is a Kerker type mixing with AMIX =  0.4000 and BMIX =      1.0000
 Hartree-type preconditioning will be used
 using additional bands           21
 reciprocal scheme for non local part
 use partial core corrections
 calculate Harris-corrections to forces 
   (improved forces if not selfconsistent)
 use gradient corrections 
 use of overlap-Matrix (Vanderbilt PP)
 Methfessel and Paxton  Order N= 1 SIGMA  =   0.20


--------------------------------------------------------------------------------------------------------


  energy-cutoff  :      300.00
  volume of cell :      528.89
      direct lattice vectors                 reciprocal lattice vectors
     8.087040000  0.000000000  0.000000000     0.123654638  0.000000000  0.000000000
     0.000000000  8.087040000  0.000000000     0.000000000  0.123654638  0.000000000
     0.000000000  0.000000000  8.087040000     0.000000000  0.000000000  0.123654638

  length of vectors
     8.087040000  8.087040000  8.087040000     0.123654638  0.123654638  0.123654638


 
 k-points in units of 2pi/SCALE and weight: Automatic kpoint scheme                 
   0.03091366  0.03091366  0.03091366       0.500
  -0.03091366  0.03091366  0.03091366       0.500
 
 k-points in reciprocal lattice and weights: Automatic kpoint scheme                 
   0.25000000  0.25000000  0.25000000       0.500
  -0.25000000  0.25000000  0.25000000       0.500
 
 position of ions in fractional coordinates (direct lattice) 
   0.99829800  0.99791000  0.99949800
   0.25436200  0.01034600  0.25438800
   0.25318400  0.25000000  0.00526500
   0.00393900  0.25000000  0.25285500
   0.50078200  0.00353500  0.00412000
   0.74588000  0.00353500  0.24921800
   0.74923900  0.25000000  0.00076100
   0.99829800  0.50209000  0.99949800
   0.25436200  0.48965400  0.25438800
   0.25108800  0.75000000  0.99983300
   0.99723500  0.75000000  0.24811800
   0.50078200  0.49646500  0.00412000
   0.74588000  0.49646500  0.24921800
   0.75107900  0.75000000  0.99892100
   0.50126400  0.75000000  0.24873600
   0.00335700  0.00432100  0.49954700
   0.25045300  0.00432100  0.74664300
   0.00257100  0.25000000  0.74742900
   0.49561200  0.01034600  0.49563800
   0.75050200  0.99791000  0.75170200
   0.74473500  0.25000000  0.49681600
   0.49714500  0.25000000  0.74606100
   0.00335700  0.49567900  0.49954700
   0.25045300  0.49567900  0.74664300
   0.24996800  0.75000000  0.50003200
   0.99819700  0.75000000  0.75180300
   0.49561200  0.48965400  0.49563800
   0.75050200  0.50209000  0.75170200
   0.75016700  0.75000000  0.49891200
   0.50188200  0.75000000  0.75276500
   0.49981900  0.25000000  0.25018100
 
 position of ions in cartesian coordinates  (Angst):
   8.07327586  8.07013809  8.08298031
   2.05703567  0.08366852  2.05724593
   2.04750914  2.02176000  0.04257827
   0.03185485  2.02176000  2.04484850
   4.04984407  0.02858769  0.03331860
   6.03196140  0.02858769  2.01543593
   6.05912576  2.02176000  0.00615424
   8.07327586  4.06042191  8.08298031
   2.05703567  3.95985148  2.05724593
   2.03055870  6.06528000  8.08568946
   8.06467933  6.06528000  2.00654019
   4.04984407  4.01493231  0.03331860
   6.03196140  4.01493231  2.01543593
   6.07400592  6.06528000  8.07831408
   4.05374202  6.06528000  2.01153798
   0.02714819  0.03494410  4.03985657
   2.02542343  0.03494410  6.03813181
   0.02079178  2.02176000  6.04448822
   4.00803407  0.08366852  4.00824433
   6.06933969  8.07013809  6.07904414
   6.02270173  2.02176000  4.01777086
   4.02043150  2.02176000  6.03342515
   0.02714819  4.00857590  4.03985657
   2.02542343  4.00857590  6.03813181
   2.02150121  6.06528000  4.04377879
   8.07245907  6.06528000  6.07986093
   4.00803407  3.95985148  4.00824433
   6.06933969  4.06042191  6.07904414
   6.06663054  6.06528000  4.03472130
   4.05873981  6.06528000  6.08764067
   4.04205625  2.02176000  2.02322375
 


--------------------------------------------------------------------------------------------------------


 k-point  1 :  0.25000.25000.2500  plane waves:    6238
 k-point  2 :  -.25000.25000.2500  plane waves:    6238

 maximum and minimum number of plane-waves per node :    6238   6238

 maximum number of plane-waves:    6238
 maximal index in each direction: 
   IXMAX= 11   IYMAX= 11   IZMAX= 11
   IXMIN=-11   IYMIN=-11   IZMIN=-11

 NGX is ok and might be reduce to  46
 NGY is ok and might be reduce to  46
 NGZ is ok and might be reduce to  46

 serial   3D FFT for wavefunctions
 parallel 3D FFT for charge:
    minimum data exchange during FFTs selected (reduces bandwidth)


 total amount of memory used by VASP on root node  63028. kBytes
========================================================================

   base      :    30000. kBytes
   nonl-proj :     6689. kBytes
   fftplans  :     2983. kBytes
   grid      :    21626. kBytes
   one-center:      482. kBytes
   wavefun   :     1248. kBytes
 
 Broyden mixing: mesh for mixing (old mesh)
   NGX = 23   NGY = 23   NGZ = 23
  (NGX  = 96   NGY  = 96   NGZ  = 96)
  gives a total of  12167 points

 initial charge density was supplied:
 charge density of overlapping atoms calculated
 number of electron  101.0000000 magnetization 
 keeping initial charge density in first step


--------------------------------------------------------------------------------------------------------


 Maximum index for augmentation-charges          543 (set IRDMAX)


--------------------------------------------------------------------------------------------------------


 First call to EWALD:  gamma=   0.219
 Maximum number of real-space cells 3x 3x 3
 Maximum number of reciprocal cells 3x 3x 3

    FEWALD:  cpu time    0.01: real time    0.01
   RESPFUN:  cpu time    0.00: real time    0.00


----------------------------------------- Iteration    1(   1)  ---------------------------------------


    POTLOK:  cpu time    0.15: real time    0.15
    SETDIJ:  cpu time    0.02: real time    0.02
    EDDIAG:  cpu time    0.30: real time    0.30
  RMM-DIIS:  cpu time    0.70: real time    0.70
    ORTHCH:  cpu time    0.02: real time    0.02
       DOS:  cpu time    0.00: real time    0.00
    --------------------------------------------
      LOOP:  cpu time    1.19: real time    1.19

 eigenvalue-minimisations  :   144
 total energy-change (2. order) : 0.2972438E+03  (-0.1820895E+04)
 number of electron  101.0000000 magnetization 
 augmentation part   101.0000000 magnetization 

 Free energy of the ion-electron system (eV)
  ---------------------------------------------------
  alpha Z        PSCENC =        15.76595319
  Ewald energy   TEWEN  =     -2773.76625477
  -1/2 Hartree   DENC   =      -777.78910429
  -exchange  EXHF       =         0.00000000
  -V(xc)+E(xc)   XCENC  =      -745.27162430
  PAW double counting   =      2148.67993976    -1334.04649801
  entropy T*S    EENTRO =         0.02472714
  eigenvalues    EBANDS =       766.57024858
  atomic energy  EATOM  =      2997.07640482
  ---------------------------------------------------
  free energy    TOTEN  =       297.24379213 eV

  energy without entropy =      297.21906498  energy(sigma->0) =      297.23554975


--------------------------------------------------------------------------------------------------------




----------------------------------------- Iteration    1(   2)  ---------------------------------------


    EDDIAG:  cpu time    0.30: real time    0.30
  RMM-DIIS:  cpu time    0.70: real time    0.70
    ORTHCH:  cpu time    0.02: real time    0.02
       DOS:  cpu time    0.00: real time    0.00
    --------------------------------------------
      LOOP:  cpu time    1.02: real time    1.02

 eigenvalue-minimisations  :   144
 total energy-change (2. order) :-0.3269941E+03  (-0.3181626E+03)
 number of electron  101.0000000 magnetization 
 augmentation part   101.0000000 magnetization 

 Free energy of the ion-electron system (eV)
  ---------------------------------------------------
  alpha Z        PSCENC =        15.76595319
  Ewald energy   TEWEN  =     -2773.76625477
  -1/2 Hartree   DENC   =      -777.78910429
  -exchange  EXHF       =         0.00000000
  -V(xc)+E(xc)   XCENC  =      -745.27162430
  PAW double counting   =      2148.67993976    -1334.04649801
  entropy T*S    EENTRO =         0.05752311
  eigenvalues    EBANDS =       439.54337197
  atomic energy  EATOM  =      2997.07640482
  ---------------------------------------------------
  free energy    TOTEN  =       -29.75028852 eV

  energy without entropy =      -29.80781163  energy(sigma->0) =      -29.76946289


--------------------------------------------------------------------------------------------------------




----------------------------------------- Iteration    1(   3)  ---------------------------------------


    EDDIAG:  cpu time    0.30: real time    0.30
  RMM-DIIS:  cpu time    0.69: real time    0.69
    ORTHCH:  cpu time    0.02: real time    0.02
       DOS:  cpu time    0.00: real time    0.00
    --------------------------------------------
      LOOP:  cpu time    1.01: real time    1.01

 eigenvalue-minimisations  :   144
 total energy-change (2. order) :-0.6224380E+02  (-0.6250107E+02)
 number of electron  101.0000000 magnetization 
 augmentation part   101.0000000 magnetization 

 Free energy of the ion-electron system (eV)
  ---------------------------------------------------
  alpha Z        PSCENC =        15.76595319
  Ewald energy   TEWEN  =     -2773.76625477
  -1/2 Hartree   DENC   =      -777.78910429
  -exchange  EXHF       =         0.00000000
  -V(xc)+E(xc)   XCENC  =      -745.27162430
  PAW double counting   =      2148.67993976    -1334.04649801
  entropy T*S    EENTRO =         0.01536769
  eigenvalues    EBANDS =       377.34173175
  atomic energy  EATOM  =      2997.07640482
  ---------------------------------------------------
  free energy    TOTEN  =       -91.99408415 eV

  energy without entropy =      -92.00945184  energy(sigma->0) =      -91.99920671


--------------------------------------------------------------------------------------------------------




----------------------------------------- Iteration    1(   4)  ---------------------------------------


    EDDIAG:  cpu time    0.30: real time    0.30
  RMM-DIIS:  cpu time    0.69: real time    0.69
    ORTHCH:  cpu time    0.02: real time    0.02
       DOS:  cpu time    0.00: real time    0.00
    --------------------------------------------
      LOOP:  cpu time    1.01: real time    1.01

 eigenvalue-minimisations  :   144
 total energy-change (2. order) :-0.1437621E+02  (-0.1339662E+02)
 number of electron  101.0000000 magnetization 
 augmentation part   101.0000000 magnetization 

 Free energy of the ion-electron system (eV)
  ---------------------------------------------------
  alpha Z        PSCENC =        15.76595319
  Ewald energy   TEWEN  =     -2773.76625477
  -1/2 Hartree   DENC   =      -777.78910429
  -exchange  EXHF       =         0.00000000
  -V(xc)+E(xc)   XCENC  =      -745.27162430
  PAW double counting   =      2148.67993976    -1334.04649801
  entropy T*S    EENTRO =        -0.01436765
  eigenvalues    EBANDS =       362.99525785
  atomic energy  EATOM  =      2997.07640482
  ---------------------------------------------------
  free energy    TOTEN  =      -106.37029339 eV

  energy without entropy =     -106.35592575  energy(sigma->0) =     -106.36550418


--------------------------------------------------------------------------------------------------------




----------------------------------------- Iteration    1(   5)  ---------------------------------------


    EDDIAG:  cpu time    0.30: real time    0.30
  RMM-DIIS:  cpu time    0.70: real time    0.70
    ORTHCH:  cpu time    0.02: real time    0.02
       DOS:  cpu time    0.00: real time    0.00
    --------------------------------------------
      LOOP:  cpu time    1.02: real time    1.02

 eigenvalue-minimisations  :   144
 total energy-change (2. order) :-0.7105288E+01  (-0.5876886E+01)
 number of electron  101.0000000 magnetization 
 augmentation part   101.0000000 magnetization 

 Free energy of the ion-electron system (eV)
  ---------------------------------------------------
  alpha Z        PSCENC =        15.76595319
  Ewald energy   TEWEN  =     -2773.76625477
  -1/2 Hartree   DENC   =      -777.78910429
  -exchange  EXHF       =         0.00000000
  -V(xc)+E(xc)   XCENC  =      -745.27162430
  PAW double counting   =      2148.67993976    -1334.04649801
  entropy T*S    EENTRO =         0.00167199
  eigenvalues    EBANDS =       355.87393023
  atomic energy  EATOM  =      2997.07640482
  ---------------------------------------------------
  free energy    TOTEN  =      -113.47558138 eV

  energy without entropy =     -113.47725336  energy(sigma->0) =     -113.47613871


--------------------------------------------------------------------------------------------------------




----------------------------------------- Iteration    1(   6)  ---------------------------------------


    EDDIAG:  cpu time    0.30: real time    0.30
  RMM-DIIS:  cpu time    0.69: real time    0.69
    ORTHCH:  cpu time    0.02: real time    0.02
       DOS:  cpu time    0.00: real time    0.00
    --------------------------------------------
      LOOP:  cpu time    1.01: real time    1.01

 eigenvalue-minimisations  :   144
 total energy-change (2. order) :-0.3137823E+01  (-0.2545936E+01)
 number of electron  101.0000000 magnetization 
 augmentation part   101.0000000 magnetization 

 Free energy of the ion-electron system (eV)
  ---------------------------------------------------
  alpha Z        PSCENC =        15.76595319
  Ewald energy   TEWEN  =     -2773.76625477
  -1/2 Hartree   DENC   =      -777.78910429
  -exchange  EXHF       =         0.00000000
  -V(xc)+E(xc)   XCENC  =      -745.27162430
  PAW double counting   =      2148.67993976    -1334.04649801
  entropy T*S    EENTRO =         0.01683861
  eigenvalues    EBANDS =       352.72094061
  atomic energy  EATOM  =      2997.07640482
  ---------------------------------------------------
  free energy    TOTEN  =      -116.61340438 eV

  energy without entropy =     -116.63024298  energy(sigma->0) =     -116.61901725


--------------------------------------------------------------------------------------------------------




----------------------------------------- Iteration    1(   7)  ---------------------------------------


    EDDIAG:  cpu time    0.30: real time    0.30
  RMM-DIIS:  cpu time    0.70: real time    0.70
    ORTHCH:  cpu time    0.02: real time    0.02
       DOS:  cpu time    0.00: real time    0.00
    --------------------------------------------
      LOOP:  cpu time    1.02: real time    1.02

 eigenvalue-minimisations  :   144
 total energy-change (2. order) :-0.1435185E+01  (-0.1275266E+01)
 number of electron  101.0000000 magnetization 
 augmentation part   101.0000000 magnetization 

 Free energy of the ion-electron system (eV)
  ---------------------------------------------------
  alpha Z        PSCENC =        15.76595319
  Ewald energy   TEWEN  =     -2773.76625477
  -1/2 Hartree   DENC   =      -777.78910429
  -exchange  EXHF       =         0.00000000
  -V(xc)+E(xc)   XCENC  =      -745.27162430
  PAW double counting   =      2148.67993976    -1334.04649801
  entropy T*S    EENTRO =         0.02036821
  eigenvalues    EBANDS =       351.28222628
  atomic energy  EATOM  =      2997.07640482
  ---------------------------------------------------
  free energy    TOTEN  =      -118.04858911 eV

  energy without entropy =     -118.06895732  energy(sigma->0) =     -118.05537851


--------------------------------------------------------------------------------------------------------




----------------------------------------- Iteration    1(   8)  ---------------------------------------


    EDDIAG:  cpu time    0.30: real time    0.30
  RMM-DIIS:  cpu time    0.69: real time    0.69
    ORTHCH:  cpu time    0.02: real time    0.02
       DOS:  cpu time    0.00: real time    0.00
    --------------------------------------------
      LOOP:  cpu time    1.01: real time    1.01

 eigenvalue-minimisations  :   144
 total energy-change (2. order) :-0.7372333E+00  (-0.6386694E+00)
 number of electron  101.0000000 magnetization 
 augmentation part   101.0000000 magnetization 

 Free energy of the ion-electron system (eV)
  ---------------------------------------------------
  alpha Z        PSCENC =        15.76595319
  Ewald energy   TEWEN  =     -2773.76625477
  -1/2 Hartree   DENC   =      -777.78910429
  -exchange  EXHF       =         0.00000000
  -V(xc)+E(xc)   XCENC  =      -745.27162430
  PAW double counting   =      2148.67993976    -1334.04649801
  entropy T*S    EENTRO =         0.02016259
  eigenvalues    EBANDS =       350.54519855
  atomic energy  EATOM  =      2997.07640482
  ---------------------------------------------------
  free energy    TOTEN  =      -118.78582245 eV

  energy without entropy =     -118.80598504  energy(sigma->0) =     -118.79254332


--------------------------------------------------------------------------------------------------------




----------------------------------------- Iteration    1(   9)  ---------------------------------------


    EDDIAG:  cpu time    0.30: real time    0.30
  RMM-DIIS:  cpu time    1.84: real time    1.84
    ORTHCH:  cpu time    0.02: real time    0.02
       DOS:  cpu time    0.00: real time    0.00
    --------------------------------------------
      LOOP:  cpu time    2.16: real time    2.16

 eigenvalue-minimisations  :   431
 total energy-change (2. order) :-0.7136407E+00  (-0.6856435E+00)
 number of electron  101.0000000 magnetization 
 augmentation part   101.0000000 magnetization 

 Free energy of the ion-electron system (eV)
  ---------------------------------------------------
  alpha Z        PSCENC =        15.76595319
  Ewald energy   TEWEN  =     -2773.76625477
  -1/2 Hartree   DENC   =      -777.78910429
  -exchange  EXHF       =         0.00000000
  -V(xc)+E(xc)   XCENC  =      -745.27162430
  PAW double counting   =      2148.67993976    -1334.04649801
  entropy T*S    EENTRO =         0.03613667
  eigenvalues    EBANDS =       349.81558375
  atomic energy  EATOM  =      2997.07640482
  ---------------------------------------------------
  free energy    TOTEN  =      -119.49946317 eV

  energy without entropy =     -119.53559984  energy(sigma->0) =     -119.51150873


--------------------------------------------------------------------------------------------------------




----------------------------------------- Iteration    1(  10)  ---------------------------------------


    EDDIAG:  cpu time    0.30: real time    0.30
  RMM-DIIS:  cpu time    1.67: real time    1.67
    ORTHCH:  cpu time    0.02: real time    0.02
       DOS:  cpu time    0.00: real time    0.00
    --------------------------------------------
      LOOP:  cpu time    1.99: real time    1.99

 eigenvalue-minimisations  :   365
 total energy-change (2. order) :-0.6133410E-01  (-0.2657363E-01)
 number of electron  101.0000000 magnetization 
 augmentation part   101.0000000 magnetization 

 Free energy of the ion-electron system (eV)
  ---------------------------------------------------
  alpha Z        PSCENC =        15.76595319
  Ewald energy   TEWEN  =     -2773.76625477
  -1/2 Hartree   DENC   =      -777.78910429
  -exchange  EXHF       =         0.00000000
  -V(xc)+E(xc)   XCENC  =      -745.27162430
  PAW double counting   =      2148.67993976    -1334.04649801
  entropy T*S    EENTRO =         0.02480642
  eigenvalues    EBANDS =       349.76557990
  atomic energy  EATOM  =      2997.07640482
  ---------------------------------------------------
  free energy    TOTEN  =      -119.56079727 eV

  energy without entropy =     -119.58560370  energy(sigma->0) =     -119.56906608


--------------------------------------------------------------------------------------------------------




----------------------------------------- Iteration    1(  11)  ---------------------------------------


    EDDIAG:  cpu time    0.30: real time    0.30
  RMM-DIIS:  cpu time    1.39: real time    1.39
    ORTHCH:  cpu time    0.02: real time    0.02
       DOS:  cpu time    0.00: real time    0.00
    --------------------------------------------
      LOOP:  cpu time    1.71: real time    1.71

 eigenvalue-minimisations  :   297
 total energy-change (2. order) :-0.2099615E-02  (-0.1050103E-02)
 number of electron  101.0000000 magnetization 
 augmentation part   101.0000000 magnetization 

 Free energy of the ion-electron system (eV)
  ---------------------------------------------------
  alpha Z        PSCENC =        15.76595319
  Ewald energy   TEWEN  =     -2773.76625477
  -1/2 Hartree   DENC   =      -777.78910429
  -exchange  EXHF       =         0.00000000
  -V(xc)+E(xc)   XCENC  =      -745.27162430
  PAW double counting   =      2148.67993976    -1334.04649801
  entropy T*S    EENTRO =         0.02465620
  eigenvalues    EBANDS =       349.76363051
  atomic energy  EATOM  =      2997.07640482
  ---------------------------------------------------
  free energy    TOTEN  =      -119.56289689 eV

  energy without entropy =     -119.58755308  energy(sigma->0) =     -119.57111562


--------------------------------------------------------------------------------------------------------




----------------------------------------- Iteration    1(  12)  ---------------------------------------


    EDDIAG:  cpu time    0.30: real time    0.30
  RMM-DIIS:  cpu time    1.23: real time    1.23
    ORTHCH:  cpu time    0.02: real time    0.02
       DOS:  cpu time    0.00: real time    0.00
    CHARGE:  cpu time    0.20: real time    0.20
    MIXING:  cpu time    0.00: real time    0.00
    --------------------------------------------
      LOOP:  cpu time    1.75: real time    1.75

 eigenvalue-minimisations  :   259
 total energy-change (2. order) :-0.1925990E-03  (-0.1670578E-03)
 number of electron  100.9999959 magnetization 
 augmentation part     3.6544536 magnetization 

 Broyden mixing:
  rms(total) = 0.26117E+01    rms(broyden)= 0.26115E+01
  rms(prec ) = 0.43516E+01
  weight for this iteration     100.00

 Free energy of the ion-electron system (eV)
  ---------------------------------------------------
  alpha Z        PSCENC =        15.76595319
  Ewald energy   TEWEN  =     -2773.76625477
  -1/2 Hartree   DENC   =      -777.78910429
  -exchange  EXHF       =         0.00000000
  -V(xc)+E(xc)   XCENC  =      -745.27162430
  PAW double counting   =      2148.67993976    -1334.04649801
  entropy T*S    EENTRO =         0.02465570
  eigenvalues    EBANDS =       349.76343840
  atomic energy  EATOM  =      2997.07640482
  ---------------------------------------------------
  free energy    TOTEN  =      -119.56308949 eV

  energy without entropy =     -119.58774519  energy(sigma->0) =     -119.57130806


--------------------------------------------------------------------------------------------------------




----------------------------------------- Iteration    1(  13)  ---------------------------------------


    POTLOK:  cpu time    0.15: real time    0.15
    SETDIJ:  cpu time    0.01: real time    0.02
    EDDIAG:  cpu time    0.30: real time    0.30
  RMM-DIIS:  cpu time    1.98: real time    1.98
    ORTHCH:  cpu time    0.02: real time    0.02
       DOS:  cpu time    0.00: real time    0.00
    CHARGE:  cpu time    0.19: real time    0.19
    MIXING:  cpu time    0.00: real time    0.00
    --------------------------------------------
      LOOP:  cpu time    2.67: real time    2.67

 eigenvalue-minimisations  :   448
 total energy-change (2. order) :-0.2575183E+02  (-0.3186210E+02)
 number of electron  100.9999930 magnetization 
 augmentation part     7.4270152 magnetization 

 Broyden mixing:
  rms(total) = 0.21918E+01    rms(broyden)= 0.21912E+01
  rms(prec ) = 0.36570E+01
  weight for this iteration     100.00

 eigenvalues of (default mixing * dielectric matrix)
  average eigenvalue GAMMA=   0.5449
  0.5449

 Free energy of the ion-electron system (eV)
  ---------------------------------------------------
  alpha Z        PSCENC =        15.76595319
  Ewald energy   TEWEN  =     -2773.76625477
  -1/2 Hartree   DENC   =      -632.17889256
  -exchange  EXHF       =         0.00000000
  -V(xc)+E(xc)   XCENC  =      -749.14577661
  PAW double counting   =      1910.41262967    -1058.66861678
  entropy T*S    EENTRO =         0.00084992
  eigenvalues    EBANDS =       145.18878630
  atomic energy  EATOM  =      2997.07640482
  ---------------------------------------------------
  free energy    TOTEN  =      -145.31491680 eV

  energy without entropy =     -145.31576673  energy(sigma->0) =     -145.31520011


--------------------------------------------------------------------------------------------------------




----------------------------------------- Iteration    1(  14)  ---------------------------------------


    POTLOK:  cpu time    0.15: real time    0.15
    SETDIJ:  cpu time    0.02: real time    0.02
    EDDIAG:  cpu time    0.30: real time    0.32
  RMM-DIIS:  cpu time    1.41: real time    1.41
    ORTHCH:  cpu time    0.02: real time    0.02
       DOS:  cpu time    0.00: real time    0.00
    CHARGE:  cpu time    0.19: real time    0.19
    MIXING:  cpu time    0.00: real time    0.00
    --------------------------------------------
      LOOP:  cpu time    2.10: real time    2.12

 eigenvalue-minimisations  :   302
 total energy-change (2. order) : 0.2455854E+02  (-0.5557912E+01)
 number of electron  100.9999934 magnetization 
 augmentation part     6.8897654 magnetization 

 Broyden mixing:
  rms(total) = 0.11761E+01    rms(broyden)= 0.11761E+01
  rms(prec ) = 0.19523E+01
  weight for this iteration     100.00

 eigenvalues of (default mixing * dielectric matrix)
  average eigenvalue GAMMA=   0.9256
  0.9256  0.9256

 Free energy of the ion-electron system (eV)
  ---------------------------------------------------
  alpha Z        PSCENC =        15.76595319
  Ewald energy   TEWEN  =     -2773.76625477
  -1/2 Hartree   DENC   =      -696.07379742
  -exchange  EXHF       =         0.00000000
  -V(xc)+E(xc)   XCENC  =      -746.62404974
  PAW double counting   =      2034.32766502    -1210.88822126
  entropy T*S    EENTRO =        -0.02578708
  eigenvalues    EBANDS =       259.45171491
  atomic energy  EATOM  =      2997.07640482
  ---------------------------------------------------
  free energy    TOTEN  =      -120.75637233 eV

  energy without entropy =     -120.73058525  energy(sigma->0) =     -120.74777664


--------------------------------------------------------------------------------------------------------




----------------------------------------- Iteration    1(  15)  ---------------------------------------


    POTLOK:  cpu time    0.15: real time    0.15
    SETDIJ:  cpu time    0.02: real time    0.02
    EDDIAG:  cpu time    0.30: real time    0.30
  RMM-DIIS:  cpu time    1.31: real time    1.31
    ORTHCH:  cpu time    0.02: real time    0.02
       DOS:  cpu time    0.00: real time    0.00
    CHARGE:  cpu time    0.19: real time    0.19
    MIXING:  cpu time    0.00: real time    0.00
    --------------------------------------------
      LOOP:  cpu time    1.99: real time    1.99

 eigenvalue-minimisations  :   293
 total energy-change (2. order) : 0.5199762E+01  (-0.3202526E+01)
 number of electron  100.9999945 magnetization 
 augmentation part     5.3818699 magnetization 

 Broyden mixing:
  rms(total) = 0.72217E+00    rms(broyden)= 0.72183E+00
  rms(prec ) = 0.11607E+01
  weight for this iteration     100.00

 eigenvalues of (default mixing * dielectric matrix)
  average eigenvalue GAMMA=   1.2872
  2.3992  0.7312  0.7312

 Free energy of the ion-electron system (eV)
  ---------------------------------------------------
  alpha Z        PSCENC =        15.76595319
  Ewald energy   TEWEN  =     -2773.76625477
  -1/2 Hartree   DENC   =      -753.02649482
  -exchange  EXHF       =         0.00000000
  -V(xc)+E(xc)   XCENC  =      -744.06512145
  PAW double counting   =      2145.48783266    -1339.03462402
  entropy T*S    EENTRO =        -0.01440777
  eigenvalues    EBANDS =       336.02010165
  atomic energy  EATOM  =      2997.07640482
  ---------------------------------------------------
  free energy    TOTEN  =      -115.55661051 eV

  energy without entropy =     -115.54220274  energy(sigma->0) =     -115.55180792


--------------------------------------------------------------------------------------------------------




----------------------------------------- Iteration    1(  16)  ---------------------------------------


    POTLOK:  cpu time    0.15: real time    0.15
    SETDIJ:  cpu time    0.02: real time    0.02
    EDDIAG:  cpu time    0.30: real time    0.30
  RMM-DIIS:  cpu time    1.48: real time    1.48
    ORTHCH:  cpu time    0.02: real time    0.02
       DOS:  cpu time    0.00: real time    0.00
    CHARGE:  cpu time    0.19: real time    0.19
    MIXING:  cpu time    0.00: real time    0.00
    --------------------------------------------
      LOOP:  cpu time    2.16: real time    2.17

 eigenvalue-minimisations  :   322
 total energy-change (2. order) : 0.1380166E+00  (-0.1815995E+00)
 number of electron  100.9999939 magnetization 
 augmentation part     6.2292913 magnetization 

 Broyden mixing:
  rms(total) = 0.25679E+00    rms(broyden)= 0.25671E+00
  rms(prec ) = 0.43344E+00
  weight for this iteration     100.00

 eigenvalues of (default mixing * dielectric matrix)
  average eigenvalue GAMMA=   1.2760
  2.5002  0.6769  0.6769  1.2503

 Free energy of the ion-electron system (eV)
  ---------------------------------------------------
  alpha Z        PSCENC =        15.76595319
  Ewald energy   TEWEN  =     -2773.76625477
  -1/2 Hartree   DENC   =      -736.32714837
  -exchange  EXHF       =         0.00000000
  -V(xc)+E(xc)   XCENC  =      -743.89623876
  PAW double counting   =      2129.32731550    -1318.05015627
  entropy T*S    EENTRO =        -0.02127802
  eigenvalues    EBANDS =       314.47280877
  atomic energy  EATOM  =      2997.07640482
  ---------------------------------------------------
  free energy    TOTEN  =      -115.41859392 eV

  energy without entropy =     -115.39731590  energy(sigma->0) =     -115.41150125


--------------------------------------------------------------------------------------------------------




----------------------------------------- Iteration    1(  17)  ---------------------------------------


    POTLOK:  cpu time    0.15: real time    0.15
    SETDIJ:  cpu time    0.02: real time    0.02
    EDDIAG:  cpu time    0.30: real time    0.30
  RMM-DIIS:  cpu time    1.53: real time    1.54
    ORTHCH:  cpu time    0.02: real time    0.02
       DOS:  cpu time    0.00: real time    0.00
    CHARGE:  cpu time    0.19: real time    0.19
    MIXING:  cpu time    0.00: real time    0.00
    --------------------------------------------
      LOOP:  cpu time    2.21: real time    2.21

 eigenvalue-minimisations  :   347
 total energy-change (2. order) : 0.1185509E+00  (-0.1452710E-01)
 number of electron  100.9999939 magnetization 
 augmentation part     6.1469871 magnetization 

 Broyden mixing:
  rms(total) = 0.14629E+00    rms(broyden)= 0.14629E+00
  rms(prec ) = 0.23904E+00
  weight for this iteration     100.00

 eigenvalues of (default mixing * dielectric matrix)
  average eigenvalue GAMMA=   1.3405
  2.5622  1.7868  0.6804  0.6804  0.9926

 Free energy of the ion-electron system (eV)
  ---------------------------------------------------
  alpha Z        PSCENC =        15.76595319
  Ewald energy   TEWEN  =     -2773.76625477
  -1/2 Hartree   DENC   =      -742.07961590
  -exchange  EXHF       =         0.00000000
  -V(xc)+E(xc)   XCENC  =      -743.50574826
  PAW double counting   =      2143.01551764    -1330.62227926
  entropy T*S    EENTRO =        -0.01980024
  eigenvalues    EBANDS =       318.83577975
  atomic energy  EATOM  =      2997.07640482
  ---------------------------------------------------
  free energy    TOTEN  =      -115.30004303 eV

  energy without entropy =     -115.28024279  energy(sigma->0) =     -115.29344295


--------------------------------------------------------------------------------------------------------




----------------------------------------- Iteration    1(  18)  ---------------------------------------


    POTLOK:  cpu time    0.15: real time    0.15
    SETDIJ:  cpu time    0.02: real time    0.02
    EDDIAG:  cpu time    0.30: real time    0.30
  RMM-DIIS:  cpu time    1.58: real time    1.58
    ORTHCH:  cpu time    0.02: real time    0.02
       DOS:  cpu time    0.00: real time    0.00
    CHARGE:  cpu time    0.19: real time    0.19
    MIXING:  cpu time    0.00: real time    0.01
    --------------------------------------------
      LOOP:  cpu time    2.26: real time    2.26

 eigenvalue-minimisations  :   353
 total energy-change (2. order) : 0.1721774E-02  (-0.1344639E-02)
 number of electron  100.9999939 magnetization 
 augmentation part     6.1470434 magnetization 

 Broyden mixing:
  rms(total) = 0.13615E+00    rms(broyden)= 0.13615E+00
  rms(prec ) = 0.22075E+00
  weight for this iteration     100.00

 eigenvalues of (default mixing * dielectric matrix)
  average eigenvalue GAMMA=   1.4117
  2.6156  2.2373  0.6823  0.6823  1.3863  0.8667

 Free energy of the ion-electron system (eV)
  ---------------------------------------------------
  alpha Z        PSCENC =        15.76595319
  Ewald energy   TEWEN  =     -2773.76625477
  -1/2 Hartree   DENC   =      -743.82126205
  -exchange  EXHF       =         0.00000000
  -V(xc)+E(xc)   XCENC  =      -743.37763819
  PAW double counting   =      2146.79910704    -1332.86367864
  entropy T*S    EENTRO =        -0.01993190
  eigenvalues    EBANDS =       318.90897924
  atomic energy  EATOM  =      2997.07640482
  ---------------------------------------------------
  free energy    TOTEN  =      -115.29832125 eV

  energy without entropy =     -115.27838935  energy(sigma->0) =     -115.29167729


--------------------------------------------------------------------------------------------------------




----------------------------------------- Iteration    1(  19)  ---------------------------------------


    POTLOK:  cpu time    0.15: real time    0.15
    SETDIJ:  cpu time    0.01: real time    0.02
    EDDIAG:  cpu time    0.30: real time    0.30
  RMM-DIIS:  cpu time    1.50: real time    1.50
    ORTHCH:  cpu time    0.02: real time    0.02
       DOS:  cpu time    0.00: real time    0.00
    CHARGE:  cpu time    0.19: real time    0.19
    MIXING:  cpu time    0.00: real time    0.00
    --------------------------------------------
      LOOP:  cpu time    2.17: real time    2.18

 eigenvalue-minimisations  :   323
 total energy-change (2. order) : 0.3946916E-01  (-0.1830764E-01)
 number of electron  100.9999940 magnetization 
 augmentation part     6.0287010 magnetization 

 Broyden mixing:
  rms(total) = 0.10621E-01    rms(broyden)= 0.10526E-01
  rms(prec ) = 0.15132E-01
  weight for this iteration     100.00

 eigenvalues of (default mixing * dielectric matrix)
  average eigenvalue GAMMA=   1.3137
  2.5700  2.4426  0.6826  0.6826  1.0462  0.8860  0.8860

 Free energy of the ion-electron system (eV)
  ---------------------------------------------------
  alpha Z        PSCENC =        15.76595319
  Ewald energy   TEWEN  =     -2773.76625477
  -1/2 Hartree   DENC   =      -748.38980823
  -exchange  EXHF       =         0.00000000
  -V(xc)+E(xc)   XCENC  =      -743.19315822
  PAW double counting   =      2154.24768211    -1340.59239111
  entropy T*S    EENTRO =        -0.01865669
  eigenvalues    EBANDS =       323.61137680
  atomic energy  EATOM  =      2997.07640482
  ---------------------------------------------------
  free energy    TOTEN  =      -115.25885209 eV

  energy without entropy =     -115.24019540  energy(sigma->0) =     -115.25263320


--------------------------------------------------------------------------------------------------------




----------------------------------------- Iteration    1(  20)  ---------------------------------------


    POTLOK:  cpu time    0.15: real time    0.15
    SETDIJ:  cpu time    0.01: real time    0.02
    EDDIAG:  cpu time    0.30: real time    0.30
  RMM-DIIS:  cpu time    1.46: real time    1.46
    ORTHCH:  cpu time    0.02: real time    0.02
       DOS:  cpu time    0.00: real time    0.00
    CHARGE:  cpu time    0.19: real time    0.19
    MIXING:  cpu time    0.00: real time    0.00
    --------------------------------------------
      LOOP:  cpu time    2.14: real time    2.14

 eigenvalue-minimisations  :   314
 total energy-change (2. order) :-0.4509405E-03  (-0.7002850E-03)
 number of electron  100.9999940 magnetization 
 augmentation part     6.0291216 magnetization 

 Broyden mixing:
  rms(total) = 0.83098E-02    rms(broyden)= 0.83056E-02
  rms(prec ) = 0.12884E-01
  weight for this iteration     100.00

 eigenvalues of (default mixing * dielectric matrix)
  average eigenvalue GAMMA=   1.3258
  2.5994  2.5368  0.6825  0.6825  1.2237  0.9259  0.9779  0.9779

 Free energy of the ion-electron system (eV)
  ---------------------------------------------------
  alpha Z        PSCENC =        15.76595319
  Ewald energy   TEWEN  =     -2773.76625477
  -1/2 Hartree   DENC   =      -748.33555668
  -exchange  EXHF       =         0.00000000
  -V(xc)+E(xc)   XCENC  =      -743.19631964
  PAW double counting   =      2154.16072558    -1340.37869064
  entropy T*S    EENTRO =        -0.01858060
  eigenvalues    EBANDS =       323.43301570
  atomic energy  EATOM  =      2997.07640482
  ---------------------------------------------------
  free energy    TOTEN  =      -115.25930303 eV

  energy without entropy =     -115.24072243  energy(sigma->0) =     -115.25310950


--------------------------------------------------------------------------------------------------------




----------------------------------------- Iteration    1(  21)  ---------------------------------------


    POTLOK:  cpu time    0.15: real time    0.15
    SETDIJ:  cpu time    0.01: real time    0.02
    EDDIAG:  cpu time    0.30: real time    0.30
  RMM-DIIS:  cpu time    1.38: real time    1.38
    ORTHCH:  cpu time    0.02: real time    0.02
       DOS:  cpu time    0.00: real time    0.00
    CHARGE:  cpu time    0.19: real time    0.19
    MIXING:  cpu time    0.00: real time    0.01
    --------------------------------------------
      LOOP:  cpu time    2.06: real time    2.06

 eigenvalue-minimisations  :   288
 total energy-change (2. order) : 0.7165721E-04  (-0.1847572E-03)
 number of electron  100.9999940 magnetization 
 augmentation part     6.0402609 magnetization 

 Broyden mixing:
  rms(total) = 0.41677E-02    rms(broyden)= 0.41665E-02
  rms(prec ) = 0.60310E-02
  weight for this iteration     100.00

 eigenvalues of (default mixing * dielectric matrix)
  average eigenvalue GAMMA=   1.3408
  2.6277  2.3693  1.7656  0.6818  0.6818  0.9960  0.9581  0.9934  0.9934

 Free energy of the ion-electron system (eV)
  ---------------------------------------------------
  alpha Z        PSCENC =        15.76595319
  Ewald energy   TEWEN  =     -2773.76625477
  -1/2 Hartree   DENC   =      -748.16183705
  -exchange  EXHF       =         0.00000000
  -V(xc)+E(xc)   XCENC  =      -743.20062193
  PAW double counting   =      2153.63664375    -1339.69846402
  entropy T*S    EENTRO =        -0.01867279
  eigenvalues    EBANDS =       323.10761742
  atomic energy  EATOM  =      2997.07640482
  ---------------------------------------------------
  free energy    TOTEN  =      -115.25923138 eV

  energy without entropy =     -115.24055858  energy(sigma->0) =     -115.25300711


--------------------------------------------------------------------------------------------------------




----------------------------------------- Iteration    1(  22)  ---------------------------------------


    POTLOK:  cpu time    0.15: real time    0.15
    SETDIJ:  cpu time    0.02: real time    0.02
    EDDIAG:  cpu time    0.30: real time    0.30
  RMM-DIIS:  cpu time    1.27: real time    1.27
    ORTHCH:  cpu time    0.02: real time    0.02
       DOS:  cpu time    0.00: real time    0.00
    CHARGE:  cpu time    0.19: real time    0.20
    MIXING:  cpu time    0.01: real time    0.01
    --------------------------------------------
      LOOP:  cpu time    1.95: real time    1.95

 eigenvalue-minimisations  :   272
 total energy-change (2. order) :-0.1121390E-03  (-0.1112444E-03)
 number of electron  100.9999940 magnetization 
 augmentation part     6.0298468 magnetization 

 Broyden mixing:
  rms(total) = 0.80937E-02    rms(broyden)= 0.80929E-02
  rms(prec ) = 0.12965E-01
  weight for this iteration     100.00

 eigenvalues of (default mixing * dielectric matrix)
  average eigenvalue GAMMA=   1.3881
  2.4894  2.4894  2.3356  1.3756  0.6823  0.6823  0.9741  0.9741  0.9390  0.9390

 Free energy of the ion-electron system (eV)
  ---------------------------------------------------
  alpha Z        PSCENC =        15.76595319
  Ewald energy   TEWEN  =     -2773.76625477
  -1/2 Hartree   DENC   =      -748.43689064
  -exchange  EXHF       =         0.00000000
  -V(xc)+E(xc)   XCENC  =      -743.18952778
  PAW double counting   =      2153.96063575    -1340.11566801
  entropy T*S    EENTRO =        -0.01858210
  eigenvalues    EBANDS =       323.46458602
  atomic energy  EATOM  =      2997.07640482
  ---------------------------------------------------
  free energy    TOTEN  =      -115.25934352 eV

  energy without entropy =     -115.24076141  energy(sigma->0) =     -115.25314948


--------------------------------------------------------------------------------------------------------




----------------------------------------- Iteration    1(  23)  ---------------------------------------


    POTLOK:  cpu time    0.15: real time    0.15
    SETDIJ:  cpu time    0.02: real time    0.02
    EDDIAG:  cpu time    0.30: real time    0.30
  RMM-DIIS:  cpu time    1.12: real time    1.12
    ORTHCH:  cpu time    0.02: real time    0.02
       DOS:  cpu time    0.00: real time    0.00
    CHARGE:  cpu time    0.19: real time    0.19
    MIXING:  cpu time    0.01: real time    0.01
    --------------------------------------------
      LOOP:  cpu time    1.80: real time    1.81

 eigenvalue-minimisations  :   220
 total energy-change (2. order) : 0.1369375E-03  (-0.3254991E-04)
 number of electron  100.9999940 magnetization 
 augmentation part     6.0358567 magnetization 

 Broyden mixing:
  rms(total) = 0.10929E-02    rms(broyden)= 0.10914E-02
  rms(prec ) = 0.18649E-02
  weight for this iteration     100.00

 eigenvalues of (default mixing * dielectric matrix)
  average eigenvalue GAMMA=   1.3829
  2.5922  2.5922  2.4434  1.5730  0.6824  0.6824  0.9506  0.9506  0.9416  0.9017
  0.9017

 Free energy of the ion-electron system (eV)
  ---------------------------------------------------
  alpha Z        PSCENC =        15.76595319
  Ewald energy   TEWEN  =     -2773.76625477
  -1/2 Hartree   DENC   =      -748.25345058
  -exchange  EXHF       =         0.00000000
  -V(xc)+E(xc)   XCENC  =      -743.19574943
  PAW double counting   =      2153.56418304    -1339.67884206
  entropy T*S    EENTRO =        -0.01864392
  eigenvalues    EBANDS =       323.24719313
  atomic energy  EATOM  =      2997.07640482
  ---------------------------------------------------
  free energy    TOTEN  =      -115.25920658 eV

  energy without entropy =     -115.24056265  energy(sigma->0) =     -115.25299194


--------------------------------------------------------------------------------------------------------




----------------------------------------- Iteration    1(  24)  ---------------------------------------


    POTLOK:  cpu time    0.15: real time    0.15
    SETDIJ:  cpu time    0.02: real time    0.02
    EDDIAG:  cpu time    0.30: real time    0.30
  RMM-DIIS:  cpu time    0.98: real time    0.98
    ORTHCH:  cpu time    0.02: real time    0.02
       DOS:  cpu time    0.00: real time    0.00
    --------------------------------------------
      LOOP:  cpu time    1.46: real time    1.46

 eigenvalue-minimisations  :   151
 total energy-change (2. order) : 0.9379651E-06  (-0.2122933E-05)
 number of electron  100.9999940 magnetization 
 augmentation part     6.0358567 magnetization 

 Free energy of the ion-electron system (eV)
  ---------------------------------------------------
  alpha Z        PSCENC =        15.76595319
  Ewald energy   TEWEN  =     -2773.76625477
  -1/2 Hartree   DENC   =      -748.22797122
  -exchange  EXHF       =         0.00000000
  -V(xc)+E(xc)   XCENC  =      -743.19631590
  PAW double counting   =      2153.48578433    -1339.60107008
  entropy T*S    EENTRO =        -0.01864993
  eigenvalues    EBANDS =       323.22291392
  atomic energy  EATOM  =      2997.07640482
  ---------------------------------------------------
  free energy    TOTEN  =      -115.25920564 eV

  energy without entropy =     -115.24055571  energy(sigma->0) =     -115.25298900


--------------------------------------------------------------------------------------------------------




 average (electrostatic) potential at core
  the test charge radii are     1.0406  1.0053
  (the norm of the test charge is              1.0000)
       1 -73.2095       2 -73.2046       3 -73.2526       4 -73.1534       5 -73.2197
       6 -73.2197       7 -73.2094       8 -73.2095       9 -73.2046      10 -73.2452
      11 -73.2238      12 -73.2197      13 -73.2197      14 -72.9979      15 -73.2072
      16 -73.1794      17 -73.1794      18 -73.1580      19 -73.2046      20 -73.2095
      21 -73.2526      22 -73.1534      23 -73.1794      24 -73.1794      25 -73.2979
      26 -73.1318      27 -73.2046      28 -73.2095      29 -73.2452      30 -73.2238
      31 -36.7700
 
 
 
 E-fermi :   7.7524     XC(G=0): -10.0738     alpha+bet :-14.1381
   add alpha+bet to get absolut eigen values

 k-point   1 :       0.2500    0.2500    0.2500
  band No.  band energies     occupation 
      1      -3.0392      2.00000
      2      -1.9764      2.00000
      3      -1.9239      2.00000
      4      -1.8054      2.00000
      5      -0.8651      2.00000
      6      -0.8041      2.00000
      7      -0.6237      2.00000
      8       0.2368      2.00000
      9       0.2736      2.00000
     10       0.3082      2.00000
     11       0.5613      2.00000
     12       1.2924      2.00000
     13       1.3147      2.00000
     14       1.3814      2.00000
     15       1.4006      2.00000
     16       1.5285      2.00000
     17       1.7920      2.00000
     18       2.4670      2.00000
     19       2.5328      2.00000
     20       2.6600      2.00000
     21       3.3210      2.00000
     22       3.3740      2.00000
     23       3.4538      2.00000
     24       3.5288      2.00000
     25       3.5996      2.00000
     26       3.7103      2.00000
     27       3.8792      2.00000
     28       3.9867      2.00000
     29       4.1092      2.00000
     30       4.1694      2.00000
     31       4.2179      2.00000
     32       4.5926      2.00000
     33       4.6309      2.00000
     34       4.6691      2.00000
     35       4.7603      2.00000
     36       4.8045      2.00000
     37       4.9178      2.00000
     38       4.9599      2.00000
     39       5.0070      2.00000
     40       5.3012      2.00000
     41       5.7032      2.00000
     42       5.9330      2.00000
     43       6.1776      2.00000
     44       6.7129      2.00000
     45       6.7728      2.00000
     46       6.8057      2.00000
     47       6.9391      2.00000
     48       6.9820      2.00000
     49       7.0166      2.00000
     50       7.0443      2.00001
     51       7.7820      0.75250
     52       7.8655      0.19238
     53       7.9380     -0.03180
     54       8.0302     -0.06433
     55       8.0460     -0.05813
     56       8.0794     -0.04293
     57       8.1473     -0.01736
     58       8.1822     -0.00960
     59       8.2536     -0.00225
     60       9.0837      0.00000
     61       9.1347      0.00000
     62       9.2164      0.00000
     63       9.3587      0.00000
     64       9.3818      0.00000
     65       9.4379      0.00000
     66       9.8591      0.00000
     67       9.9105      0.00000
     68       9.9802      0.00000
     69      10.0268      0.00000
     70      10.0566      0.00000
     71      10.1513      0.00000
     72      10.5671      0.00000

 k-point   2 :      -0.2500    0.2500    0.2500
  band No.  band energies     occupation 
      1      -3.0376      2.00000
      2      -1.9758      2.00000
      3      -1.9536      2.00000
      4      -1.7812      2.00000
      5      -0.8651      2.00000
      6      -0.8315      2.00000
      7      -0.5534      2.00000
      8       0.2355      2.00000
      9       0.2488      2.00000
     10       0.3419      2.00000
     11       0.4822      2.00000
     12       1.2846      2.00000
     13       1.3081      2.00000
     14       1.3281      2.00000
     15       1.4367      2.00000
     16       1.5494      2.00000
     17       1.8265      2.00000
     18       2.5033      2.00000
     19       2.5112      2.00000
     20       2.6347      2.00000
     21       3.3536      2.00000
     22       3.3771      2.00000
     23       3.4769      2.00000
     24       3.5360      2.00000
     25       3.5864      2.00000
     26       3.7752      2.00000
     27       3.8853      2.00000
     28       3.9714      2.00000
     29       4.1146      2.00000
     30       4.1173      2.00000
     31       4.2867      2.00000
     32       4.5511      2.00000
     33       4.6215      2.00000
     34       4.6305      2.00000
     35       4.7640      2.00000
     36       4.7884      2.00000
     37       4.8770      2.00000
     38       4.9995      2.00000
     39       5.0958      2.00000
     40       5.2034      2.00000
     41       5.6998      2.00000
     42       5.8009      2.00000
     43       6.2909      2.00000
     44       6.7121      2.00000
     45       6.7416      2.00000
     46       6.7501      2.00000
     47       6.9025      2.00000
     48       6.9861      2.00000
     49       7.0186      2.00000
     50       7.0631      2.00001
     51       7.7822      0.75141
     52       7.8256      0.42457
     53       7.8621      0.20925
     54       8.0769     -0.04409
     55       8.0895     -0.03840
     56       8.1664     -0.01269
     57       8.2094     -0.00573
     58       8.2454     -0.00270
     59       8.3711     -0.00011
     60       9.0255      0.00000
     61       9.0675      0.00000
     62       9.1437      0.00000
     63       9.3077      0.00000
     64       9.4051      0.00000
     65       9.4294      0.00000
     66       9.9508      0.00000
     67       9.9546      0.00000
     68       9.9646      0.00000
     69       9.9791      0.00000
     70      10.1594      0.00000
     71      10.1747      0.00000
     72      10.5458      0.00000


--------------------------------------------------------------------------------------------------------


 soft charge-density along one line, spin component           1
         0         1         2         3         4         5         6         7         8         9
 total charge-density along one line
 
 pseudopotential strength for first ion, spin component:           1
  8.464  -0.005   0.000   0.000   0.000   0.000   0.000   0.000
 -0.005   0.000   0.000   0.000   0.000   0.000   0.000   0.000
  0.000   0.000   1.987   0.000   0.000  -0.025   0.000   0.000
  0.000   0.000   0.000   1.987   0.000   0.000  -0.025   0.000
  0.000   0.000   0.000   0.000   1.987   0.000   0.000  -0.025
  0.000   0.000  -0.025   0.000   0.000  -0.012   0.000   0.000
  0.000   0.000   0.000  -0.025   0.000   0.000  -0.012   0.000
  0.000   0.000   0.000   0.000  -0.025   0.000   0.000  -0.012
 total augmentation occupancy for first ion, spin component:           1
  1.323  -0.493  -0.007  -0.004  -0.004   0.008   0.004   0.007
 -0.493   0.474   0.008   0.003   0.009  -0.004  -0.002  -0.005
 -0.007   0.008   0.735   0.003   0.003  -0.179  -0.001   0.000
 -0.004   0.003   0.003   0.725   0.001   0.000  -0.177   0.000
 -0.004   0.009   0.003   0.001   0.715   0.000   0.000  -0.176
  0.008  -0.004  -0.179   0.000   0.000   0.049   0.000   0.000
  0.004  -0.002  -0.001  -0.177   0.000   0.000   0.049   0.000
  0.007  -0.005   0.000   0.000  -0.176   0.000   0.000   0.049


------------------------ aborting loop because EDIFF is reached ----------------------------------------




--------------------------------------------------------------------------------------------------------



  FREE ENERGIE OF THE ION-ELECTRON SYSTEM (eV)
  ---------------------------------------------------
  free  energy   TOTEN  =      -115.259206 eV

  energy  without entropy=     -115.240556  energy(sigma->0) =     -115.252989
 
    CHARGE:  cpu time    0.19: real time    0.19
    FORLOC:  cpu time    0.04: real time    0.04
    FORNL :  cpu time    0.48: real time    0.48
    STRESS:  cpu time    1.08: real time    1.08
    FORCOR:  cpu time    0.17: real time    0.17
    FORHAR:  cpu time    0.07: real time    0.07
    MIXING:  cpu time    0.01: real time    0.01

  FORCE on cell =-STRESS in cart. coord.  units (eV):
  Direction    XX          YY          ZZ          XY          YZ          ZX
  --------------------------------------------------------------------------------------
  Alpha Z    15.76595    15.76595    15.76595
  Ewald    -946.75573  -880.26535  -946.75573     0.00000     0.00000    42.48522
  Hartree   233.27366   281.63228   233.27366     0.00000     0.00000    26.34271
  E(xc)    -317.43992  -317.30510  -317.43992     0.00000     0.00000     0.05200
  Local     -66.08009  -180.23851   -66.08009     0.00000     0.00000   -68.37179
  n-local   529.17517   527.85414   529.17515    -0.13858    -0.98310    -0.32252
  augment    26.00414    25.87502    26.00415     0.00000     0.00000    -0.19140
  Kinetic   520.46261   520.53172   520.46271     2.00109     3.61652    -1.27976
  Fock        0.00000     0.00000     0.00000     0.00000     0.00000     0.00000
  -------------------------------------------------------------------------------------
  Total      -5.59417    -6.14984    -5.59417     0.00000     0.00000    -1.28554
  in kB     -16.94640   -18.62969   -16.94640     0.00000     0.00000    -3.89428
  external pressure =      -17.51 kB  Pullay stress =        0.00 kB


 VOLUME and BASIS-vectors are now :
 -----------------------------------------------------------------------------
  energy-cutoff  :      300.00
  volume of cell :      528.89
      direct lattice vectors                 reciprocal lattice vectors
     8.087040000  0.000000000  0.000000000     0.123654638  0.000000000  0.000000000
     0.000000000  8.087040000  0.000000000     0.000000000  0.123654638  0.000000000
     0.000000000  0.000000000  8.087040000     0.000000000  0.000000000  0.123654638

  length of vectors
     8.087040000  8.087040000  8.087040000     0.123654638  0.123654638  0.123654638


 FORCES acting on ions
    electron-ion (+dipol)            ewald-force                    non-local-force                 convergence-correction
 -----------------------------------------------------------------------------------------------
   -.365E+01 0.303E+01 0.520E+01   0.334E+01 -.340E+01 -.538E+01   0.344E+00 0.404E+00 0.208E+00   -.691E-04 0.363E-03 0.575E-03
   0.300E+02 0.226E+02 -.841E+01   -.298E+02 -.223E+02 0.858E+01   -.119E+00 -.231E+00 -.145E+00   0.879E-03 0.686E-03 -.455E-04
   0.285E+02 0.258E-13 0.288E+02   -.285E+02 0.105E-13 -.285E+02   -.282E-01 0.325E-18 -.301E+00   0.855E-03 -.225E-17 0.875E-03
   -.610E+01 0.192E-13 -.761E+01   0.639E+01 0.279E-14 0.782E+01   -.327E+00 0.000E+00 -.218E+00   0.181E-04 0.721E-14 -.390E-04
   0.279E+01 0.260E+02 0.283E+02   -.263E+01 -.261E+02 -.282E+02   -.147E+00 0.129E+00 -.800E-01   0.522E-04 0.633E-03 0.854E-03
   -.283E+02 0.260E+02 -.279E+01   0.282E+02 -.261E+02 0.263E+01   0.800E-01 0.129E+00 0.147E+00   -.858E-03 0.632E-03 -.514E-04
   -.270E+02 -.543E-13 0.270E+02   0.270E+02 -.952E-12 -.270E+02   -.797E-01 0.000E+00 0.797E-01   -.827E-03 0.382E-14 0.822E-03
   -.365E+01 -.303E+01 0.520E+01   0.334E+01 0.340E+01 -.538E+01   0.344E+00 -.404E+00 0.208E+00   -.691E-04 -.363E-03 0.575E-03
   0.300E+02 -.226E+02 -.841E+01   -.298E+02 0.223E+02 0.858E+01   -.119E+00 0.231E+00 -.145E+00   0.879E-03 -.686E-03 -.455E-04
   0.583E+01 -.243E-13 0.516E+01   -.588E+01 0.787E-12 -.537E+01   0.465E-01 0.000E+00 0.237E+00   0.574E-03 -.111E-14 0.582E-03
   -.396E+01 0.297E-12 -.321E+01   0.361E+01 0.129E-13 0.301E+01   0.389E+00 0.000E+00 0.222E+00   -.596E-04 -.743E-14 -.529E-04
   0.279E+01 -.260E+02 0.283E+02   -.263E+01 0.261E+02 -.282E+02   -.147E+00 -.129E+00 -.800E-01   0.522E-04 -.633E-03 0.854E-03
   -.283E+02 -.260E+02 -.279E+01   0.282E+02 0.261E+02 0.263E+01   0.800E-01 -.129E+00 0.147E+00   -.858E-03 -.632E-03 -.514E-04
   -.485E+01 -.793E-13 0.485E+01   0.518E+01 0.103E-14 -.518E+01   -.384E+00 0.000E+00 0.384E+00   -.579E-03 -.300E-14 0.577E-03
   0.325E+01 -.784E-12 -.325E+01   -.295E+01 -.320E-14 0.295E+01   -.288E+00 0.000E+00 0.288E+00   0.528E-04 0.630E-14 -.522E-04
   -.708E+01 -.808E+00 -.573E+01   0.734E+01 0.966E+00 0.582E+01   -.258E+00 -.170E+00 -.716E-01   -.128E-04 0.379E-03 -.584E-03
   0.573E+01 -.808E+00 0.708E+01   -.582E+01 0.966E+00 -.734E+01   0.716E-01 -.170E+00 0.258E+00   0.587E-03 0.380E-03 0.119E-04
   -.721E+01 0.360E-12 0.721E+01   0.747E+01 0.187E-11 -.747E+01   -.262E+00 0.000E+00 0.262E+00   -.467E-04 0.105E-13 0.456E-04
   0.841E+01 0.226E+02 -.300E+02   -.858E+01 -.223E+02 0.298E+02   0.145E+00 -.231E+00 0.119E+00   0.465E-04 0.688E-03 -.875E-03
   -.520E+01 0.303E+01 0.365E+01   0.538E+01 -.340E+01 -.334E+01   -.208E+00 0.404E+00 -.344E+00   -.578E-03 0.364E-03 0.682E-04
   -.288E+02 -.151E-12 -.285E+02   0.285E+02 0.923E-14 0.285E+02   0.301E+00 0.000E+00 0.282E-01   -.880E-03 0.764E-14 -.850E-03
   0.761E+01 -.195E-12 0.610E+01   -.782E+01 -.945E-12 -.639E+01   0.218E+00 0.000E+00 0.327E+00   0.404E-04 0.342E-14 -.192E-04
   -.708E+01 0.808E+00 -.573E+01   0.734E+01 -.966E+00 0.582E+01   -.258E+00 0.170E+00 -.716E-01   -.128E-04 -.379E-03 -.584E-03
   0.573E+01 0.808E+00 0.708E+01   -.582E+01 -.966E+00 -.734E+01   0.716E-01 0.170E+00 0.258E+00   0.587E-03 -.380E-03 0.119E-04
   0.524E+01 -.247E-13 -.524E+01   -.557E+01 -.164E-13 0.557E+01   0.315E+00 0.000E+00 -.315E+00   0.576E-03 -.793E-14 -.574E-03
   -.372E+01 -.474E-12 0.372E+01   0.340E+01 -.836E-12 -.340E+01   0.381E+00 0.000E+00 -.381E+00   -.628E-04 -.106E-13 0.621E-04
   0.841E+01 -.226E+02 -.300E+02   -.858E+01 0.223E+02 0.298E+02   0.145E+00 0.231E+00 0.119E+00   0.465E-04 -.688E-03 -.875E-03
   -.520E+01 -.303E+01 0.365E+01   0.538E+01 0.340E+01 -.334E+01   -.208E+00 -.404E+00 -.344E+00   -.578E-03 -.364E-03 0.682E-04
   -.516E+01 -.265E-12 -.583E+01   0.537E+01 0.175E-15 0.588E+01   -.237E+00 0.000E+00 -.465E-01   -.583E-03 -.885E-14 -.573E-03
   0.321E+01 0.541E-12 0.396E+01   -.301E+01 0.205E-14 -.361E+01   -.222E+00 0.000E+00 -.389E+00   0.535E-04 -.418E-14 0.589E-04
   0.273E+02 -.639E-12 -.273E+02   -.281E+02 0.996E-14 0.281E+02   0.855E+00 0.000E+00 -.855E+00   0.687E-03 -.214E-12 -.681E-03
 -----------------------------------------------------------------------------------------------
   -.493E+00 -.223E-11 0.493E+00   0.426E-13 0.371E-13 -.995E-13   0.493E+00 -.555E-16 -.493E+00   -.862E-04 -.209E-12 0.869E-04
 
 
 POSITION                                       TOTAL-FORCE (eV/Angst)
 -----------------------------------------------------------------------------------
      8.07328      8.07014      8.08298         0.038604      0.038064      0.024977
      2.05704      0.08367      2.05725         0.002624      0.048569      0.019839
      2.04751      2.02176      0.04258        -0.021814      0.000000     -0.030104
      0.03185      2.02176      2.04485        -0.034549      0.000000     -0.014712
      4.04984      0.02859      0.03332         0.011269     -0.024435     -0.012374
      6.03196      0.02859      2.01544         0.012374     -0.024435     -0.011269
      6.05913      2.02176      0.00615        -0.005576      0.000000      0.005576
      8.07328      4.06042      8.08298         0.038604     -0.038064      0.024977
      2.05704      3.95985      2.05725         0.002624     -0.048569      0.019839
      2.03056      6.06528      8.08569        -0.009932      0.000000      0.031214
      8.06468      6.06528      2.00654         0.033961      0.000000      0.021417
      4.04984      4.01493      0.03332         0.011269      0.024435     -0.012374
      6.03196      4.01493      2.01544         0.012374      0.024435     -0.011269
      6.07401      6.06528      8.07831        -0.056450      0.000000      0.056450
      4.05374      6.06528      2.01154         0.008813      0.000000     -0.008813
      0.02715      0.03494      4.03986         0.002583     -0.011779      0.010047
      2.02542      0.03494      6.03813        -0.010047     -0.011779     -0.002583
      0.02079      2.02176      6.04449        -0.001313      0.000000      0.001313
      4.00803      0.08367      4.00824        -0.019839      0.048569     -0.002624
      6.06934      8.07014      6.07904        -0.024977      0.038064     -0.038604
      6.02270      2.02176      4.01777         0.030104      0.000000      0.021814
      4.02043      2.02176      6.03343         0.014712      0.000000      0.034549
      0.02715      4.00858      4.03986         0.002583      0.011779      0.010047
      2.02542      4.00858      6.03813        -0.010047      0.011779     -0.002583
      2.02150      6.06528      4.04378        -0.018169      0.000000      0.018169
      8.07246      6.06528      6.07986         0.059210      0.000000     -0.059210
      4.00803      3.95985      4.00824        -0.019839     -0.048569     -0.002624
      6.06934      4.06042      6.07904        -0.024977     -0.038064     -0.038604
      6.06663      6.06528      4.03472        -0.031214      0.000000      0.009932
      4.05874      6.06528      6.08764        -0.021417      0.000000     -0.033961
      4.04206      2.02176      2.02322         0.028449      0.000000     -0.028449
 -----------------------------------------------------------------------------------
    total drift:                                0.000117      0.000000     -0.000126


--------------------------------------------------------------------------------------------------------


    POTLOK:  cpu time    0.16: real time    0.16


--------------------------------------------------------------------------------------------------------


  FORCES: max atom, RMS     0.083735    0.042738
  FORCE total and by dimension    0.237955    0.059210
     LOOP+:  cpu time   43.11: real time   43.17
    4ORBIT:  cpu time    0.00: real time    0.00

 total amount of memory used by VASP on root node  63028. kBytes
========================================================================

   base      :    30000. kBytes
   nonl-proj :     6689. kBytes
   fftplans  :     2983. kBytes
   grid      :    21626. kBytes
   one-center:      482. kBytes
   wavefun   :     1248. kBytes
 
  
  
 General timing and accounting informations for this job:
 ========================================================
  
                  Total CPU time used (sec):       43.979
                            User time (sec):       43.870
                          System time (sec):        0.109
                         Elapsed time (sec):       44.164
  
                   Maximum memory used (kb):           0.
                   Average memory used (kb):           0.
  
                          Minor page faults:        23437
                          Major page faults:            0
                 Voluntary context switches:         1452
