   8   8   0   0
  0.2226630E+02  0.5626600E-09  0.5626600E-09  0.5626600E-09  0.5000000E-15
  1.000000000000000E-004
  CAR 
 unknown system                          
     10.88466718    -13.28568013  301      3.59570881      1.00000000
    -13.286  0.0000E+00  0.0000E+00  0.0000E+00  0.0000E+00
    -13.205  0.0000E+00  0.0000E+00  0.0000E+00  0.0000E+00
    -13.125  0.0000E+00  0.0000E+00  0.0000E+00  0.0000E+00
    -13.044  0.0000E+00  0.0000E+00  0.0000E+00  0.0000E+00
    -12.963 -0.8071E-31  0.0000E+00 -0.6502E-32  0.0000E+00
    -12.883 -0.6617E-28 -0.4783E-28 -0.5337E-29 -0.3854E-29
    -12.802 -0.3391E-25 -0.2491E-25 -0.2737E-26 -0.2011E-26
    -12.722 -0.1255E-22 -0.9386E-23 -0.1014E-23 -0.7582E-24
    -12.641 -0.3357E-20 -0.2554E-20 -0.2715E-21 -0.2065E-21
    -12.561 -0.6481E-18 -0.5017E-18 -0.5248E-19 -0.4063E-19
    -12.480 -0.9033E-16 -0.7115E-16 -0.7330E-17 -0.5773E-17
    -12.399 -0.8802E-14 -0.7061E-14 -0.7165E-15 -0.5747E-15
    -12.319 -0.6352E-12 -0.5182E-12 -0.5190E-13 -0.4233E-13
    -12.238 -0.3301E-10 -0.2741E-10 -0.2712E-11 -0.2250E-11
    -12.158 -0.1234E-08 -0.1042E-08 -0.1021E-09 -0.8622E-10
    -12.077 -0.3310E-07 -0.2846E-07 -0.2769E-08 -0.2379E-08
    -11.997 -0.6360E-06 -0.5567E-06 -0.5401E-07 -0.4723E-07
    -11.916 -0.8729E-05 -0.7778E-05 -0.7573E-06 -0.6739E-06
    -11.835 -0.8515E-04 -0.7727E-04 -0.7617E-05 -0.6899E-05
    -11.755 -0.5859E-03 -0.5417E-03 -0.5482E-04 -0.5055E-04
    -11.674 -0.2801E-02 -0.2642E-02 -0.2805E-03 -0.2634E-03
    -11.594 -0.8984E-02 -0.8663E-02 -0.1004E-02 -0.9614E-03
    -11.513 -0.1721E-01 -0.1712E-01 -0.2391E-02 -0.2341E-02
    -11.433 -0.7740E-02 -0.9205E-02 -0.3014E-02 -0.3082E-02
    -11.352  0.6323E-01  0.5865E-01  0.2080E-02  0.1643E-02
    -11.271  0.2281E+00  0.2208E+00  0.2046E-01  0.1943E-01
    -11.191  0.4347E+00  0.4288E+00  0.5548E-01  0.5398E-01
    -11.110  0.5367E+00  0.5371E+00  0.9872E-01  0.9725E-01
    -11.030  0.4348E+00  0.4416E+00  0.1337E+00  0.1328E+00
    -10.949  0.2127E+00  0.2204E+00  0.1509E+00  0.1506E+00
    -10.869  0.3940E-01  0.4340E-01  0.1541E+00  0.1541E+00
    -10.788 -0.2166E-01 -0.2103E-01  0.1523E+00  0.1524E+00
    -10.708 -0.1932E-01 -0.1977E-01  0.1508E+00  0.1508E+00
    -10.627 -0.7364E-02 -0.7682E-02  0.1502E+00  0.1502E+00
    -10.546 -0.1728E-02 -0.1830E-02  0.1500E+00  0.1500E+00
    -10.466 -0.2716E-03 -0.2913E-03  0.1500E+00  0.1500E+00
    -10.385 -0.2954E-04 -0.3206E-04  0.1500E+00  0.1500E+00
    -10.305 -0.2276E-05 -0.2482E-05  0.1500E+00  0.1500E+00
    -10.224 -0.4405E-06 -0.1839E-06  0.1500E+00  0.1500E+00
    -10.144 -0.4075E-05 -0.7810E-06  0.1500E+00  0.1500E+00
    -10.063 -0.3625E-04 -0.8809E-05  0.1500E+00  0.1500E+00
     -9.982 -0.2199E-03 -0.6921E-04  0.1500E+00  0.1500E+00
     -9.902 -0.8697E-03 -0.3664E-03  0.1499E+00  0.1500E+00
     -9.821 -0.1984E-02 -0.1232E-02  0.1497E+00  0.1499E+00
     -9.741 -0.1179E-02 -0.2165E-02  0.1497E+00  0.1497E+00
     -9.660  0.7239E-02  0.4966E-03  0.1502E+00  0.1497E+00
     -9.580  0.2493E-01  0.1241E-01  0.1522E+00  0.1507E+00
     -9.499  0.3997E-01  0.3118E-01  0.1555E+00  0.1532E+00
     -9.418  0.3718E-01  0.4137E-01  0.1585E+00  0.1566E+00
     -9.338  0.1959E-01  0.3217E-01  0.1600E+00  0.1592E+00
     -9.257  0.3874E-02  0.1340E-01  0.1604E+00  0.1602E+00
     -9.177 -0.1888E-02  0.8906E-03  0.1602E+00  0.1603E+00
     -9.096 -0.1698E-02 -0.2165E-02  0.1601E+00  0.1601E+00
     -9.016 -0.6253E-03 -0.1299E-02  0.1600E+00  0.1600E+00
     -8.935 -0.1396E-03 -0.3981E-03  0.1600E+00  0.1600E+00
     -8.854 -0.2066E-04 -0.7701E-04  0.1600E+00  0.1600E+00
     -8.774 -0.2099E-05 -0.1002E-04  0.1600E+00  0.1600E+00
     -8.693 -0.1973E-06 -0.9112E-06  0.1600E+00  0.1600E+00
     -8.613 -0.7925E-06 -0.2606E-06  0.1600E+00  0.1600E+00
     -8.532 -0.8900E-05 -0.2765E-05  0.1600E+00  0.1600E+00
     -8.452 -0.6980E-04 -0.2611E-04  0.1600E+00  0.1600E+00
     -8.371 -0.3689E-03 -0.1689E-03  0.1600E+00  0.1600E+00
     -8.290 -0.1237E-02 -0.7193E-03  0.1599E+00  0.1599E+00
     -8.210 -0.2166E-02 -0.1824E-02  0.1597E+00  0.1598E+00
     -8.129  0.5268E-03 -0.1659E-02  0.1597E+00  0.1596E+00
     -8.049  0.1248E-01  0.5154E-02  0.1607E+00  0.1601E+00
     -7.968  0.3124E-01  0.2177E-01  0.1633E+00  0.1618E+00
     -7.888  0.4124E-01  0.3843E-01  0.1666E+00  0.1649E+00
     -7.807  0.3140E-01  0.3863E-01  0.1691E+00  0.1680E+00
     -7.727  0.1095E-01  0.2123E-01  0.1700E+00  0.1697E+00
     -7.646 -0.3460E-02  0.2030E-02  0.1697E+00  0.1699E+00
     -7.565 -0.1694E-02 -0.4662E-02  0.1696E+00  0.1695E+00
     -7.485  0.2214E-01  0.9345E-02  0.1714E+00  0.1703E+00
     -7.404  0.6051E-01  0.4425E-01  0.1762E+00  0.1738E+00
     -7.324  0.8257E-01  0.7757E-01  0.1829E+00  0.1801E+00
     -7.243  0.6571E-01  0.7720E-01  0.1882E+00  0.1863E+00
     -7.163  0.2824E-01  0.4401E-01  0.1905E+00  0.1899E+00
     -7.082  0.2383E-02  0.1059E-01  0.1906E+00  0.1907E+00
     -7.001 -0.4316E-02 -0.3261E-02  0.1903E+00  0.1904E+00
     -6.921 -0.2696E-02 -0.3673E-02  0.1901E+00  0.1902E+00
     -6.840 -0.8437E-03 -0.1459E-02  0.1900E+00  0.1900E+00
     -6.760 -0.1661E-03 -0.3445E-03  0.1900E+00  0.1900E+00
     -6.679 -0.2194E-04 -0.5350E-04  0.1900E+00  0.1900E+00
     -6.599 -0.2002E-05 -0.5684E-05  0.1900E+00  0.1900E+00
     -6.518 -0.1280E-06 -0.4211E-06  0.1900E+00  0.1900E+00
     -6.437 -0.5790E-08 -0.2199E-07  0.1900E+00  0.1900E+00
     -6.357 -0.1948E-09 -0.8158E-09  0.1900E+00  0.1900E+00
     -6.276 -0.3367E-09 -0.6537E-10  0.1900E+00  0.1900E+00
     -6.196 -0.9153E-08 -0.1463E-08  0.1900E+00  0.1900E+00
     -6.115 -0.1789E-06 -0.3471E-07  0.1900E+00  0.1900E+00
     -6.035 -0.2465E-05 -0.5834E-06  0.1900E+00  0.1900E+00
     -5.954 -0.2370E-04 -0.6889E-05  0.1900E+00  0.1900E+00
     -5.873 -0.1562E-03 -0.5638E-04  0.1900E+00  0.1900E+00
     -5.793 -0.6791E-03 -0.3122E-03  0.1899E+00  0.1900E+00
     -5.712 -0.1773E-02 -0.1108E-02  0.1898E+00  0.1899E+00
     -5.632 -0.1764E-02 -0.2137E-02  0.1896E+00  0.1897E+00
     -5.551  0.4605E-02 -0.1579E-03  0.1900E+00  0.1897E+00
     -5.471  0.2086E-01  0.1061E-01  0.1917E+00  0.1906E+00
     -5.390  0.3797E-01  0.2922E-01  0.1948E+00  0.1929E+00
     -5.309  0.3943E-01  0.4117E-01  0.1979E+00  0.1962E+00
     -5.229  0.2365E-01  0.3396E-01  0.1998E+00  0.1990E+00
     -5.148  0.6357E-02  0.1534E-01  0.2004E+00  0.2002E+00
     -5.068 -0.1397E-02  0.1726E-02  0.2002E+00  0.2003E+00
     -4.987 -0.1923E-02 -0.2132E-02  0.2001E+00  0.2002E+00
     -4.907 -0.8064E-03 -0.1429E-02  0.2000E+00  0.2000E+00
     -4.826 -0.1978E-03 -0.4635E-03  0.2000E+00  0.2000E+00
     -4.745 -0.3176E-04 -0.9386E-04  0.2000E+00  0.2000E+00
     -4.665 -0.3481E-05 -0.1273E-04  0.2000E+00  0.2000E+00
     -4.584 -0.2657E-06 -0.1190E-05  0.2000E+00  0.2000E+00
     -4.504 -0.1428E-07 -0.7791E-07  0.2000E+00  0.2000E+00
     -4.423 -0.5446E-09 -0.3606E-08  0.2000E+00  0.2000E+00
     -4.343 -0.1480E-10 -0.1186E-09  0.2000E+00  0.2000E+00
     -4.262 -0.2875E-12 -0.2785E-11  0.2000E+00  0.2000E+00
     -4.182 -0.3969E-14 -0.4680E-13  0.2000E+00  0.2000E+00
     -4.101 -0.6053E-16 -0.5524E-15  0.2000E+00  0.2000E+00
     -4.020 -0.6409E-15 -0.1547E-15  0.2000E+00  0.2000E+00
     -3.940 -0.5500E-13 -0.1440E-13  0.2000E+00  0.2000E+00
     -3.859 -0.3413E-11 -0.9908E-12  0.2000E+00  0.2000E+00
     -3.779 -0.1516E-09 -0.4879E-10  0.2000E+00  0.2000E+00
     -3.698 -0.4805E-08 -0.1717E-08  0.2000E+00  0.2000E+00
     -3.618 -0.1083E-06 -0.4302E-07  0.2000E+00  0.2000E+00
     -3.537 -0.1728E-05 -0.7640E-06  0.2000E+00  0.2000E+00
     -3.456 -0.1933E-04 -0.9546E-05  0.2000E+00  0.2000E+00
     -3.376 -0.1495E-03 -0.8290E-04  0.2000E+00  0.2000E+00
     -3.295 -0.7781E-03 -0.4895E-03  0.1999E+00  0.2000E+00
     -3.215 -0.2561E-02 -0.1876E-02  0.1997E+00  0.1998E+00
     -3.134 -0.4333E-02 -0.4081E-02  0.1994E+00  0.1995E+00
     -3.054  0.1555E-02 -0.1839E-02  0.1995E+00  0.1993E+00
     -2.973  0.2624E-01  0.1639E-01  0.2016E+00  0.2006E+00
     -2.892  0.6380E-01  0.5247E-01  0.2067E+00  0.2049E+00
     -2.812  0.8275E-01  0.8088E-01  0.2134E+00  0.2114E+00
     -2.731  0.6292E-01  0.7259E-01  0.2185E+00  0.2172E+00
     -2.651  0.2536E-01  0.3659E-01  0.2205E+00  0.2202E+00
     -2.570  0.1206E-02  0.6346E-02  0.2206E+00  0.2207E+00
     -2.490 -0.4333E-02 -0.3977E-02  0.2203E+00  0.2204E+00
     -2.409 -0.2501E-02 -0.3237E-02  0.2201E+00  0.2201E+00
     -2.328 -0.7500E-03 -0.1146E-02  0.2200E+00  0.2200E+00
     -2.248 -0.1426E-03 -0.2486E-03  0.2200E+00  0.2200E+00
     -2.167 -0.1826E-04 -0.3582E-04  0.2200E+00  0.2200E+00
     -2.087 -0.1624E-05 -0.3548E-05  0.2200E+00  0.2200E+00
     -2.006 -0.2436E-06 -0.2695E-06  0.2200E+00  0.2200E+00
     -1.926 -0.2032E-05 -0.4320E-06  0.2200E+00  0.2200E+00
     -1.845 -0.2008E-04 -0.5183E-05  0.2200E+00  0.2200E+00
     -1.764 -0.1364E-03 -0.4442E-04  0.2200E+00  0.2200E+00
     -1.684 -0.6146E-03 -0.2586E-03  0.2199E+00  0.2200E+00
     -1.603 -0.1682E-02 -0.9744E-03  0.2198E+00  0.2199E+00
     -1.523 -0.1910E-02 -0.2067E-02  0.2196E+00  0.2197E+00
     -1.442  0.3729E-02 -0.7690E-03  0.2199E+00  0.2197E+00
     -1.362  0.1933E-01  0.8710E-02  0.2215E+00  0.2204E+00
     -1.281  0.3701E-01  0.2691E-01  0.2245E+00  0.2225E+00
     -1.201  0.4007E-01  0.4065E-01  0.2277E+00  0.2258E+00
     -1.120  0.2519E-01  0.3580E-01  0.2297E+00  0.2287E+00
     -1.039  0.7407E-02  0.1762E-01  0.2303E+00  0.2301E+00
     -0.959 -0.1265E-02  0.2779E-02  0.2302E+00  0.2303E+00
     -0.878 -0.2608E-02 -0.2310E-02  0.2300E+00  0.2302E+00
     -0.798 -0.2562E-02 -0.2602E-02  0.2298E+00  0.2299E+00
     -0.717 -0.2152E-02 -0.2649E-02  0.2297E+00  0.2297E+00
     -0.637  0.3558E-02 -0.7007E-03  0.2299E+00  0.2297E+00
     -0.556  0.1870E-01  0.9166E-02  0.2314E+00  0.2304E+00
     -0.475  0.3489E-01  0.2667E-01  0.2343E+00  0.2326E+00
     -0.395  0.3589E-01  0.3766E-01  0.2371E+00  0.2356E+00
     -0.314  0.2425E-01  0.3113E-01  0.2391E+00  0.2381E+00
     -0.234  0.2663E-01  0.2303E-01  0.2412E+00  0.2400E+00
     -0.153  0.5488E-01  0.3888E-01  0.2457E+00  0.2431E+00
     -0.073  0.7987E-01  0.7045E-01  0.2521E+00  0.2488E+00
      0.008  0.6905E-01  0.7939E-01  0.2577E+00  0.2552E+00
      0.089  0.3287E-01  0.5205E-01  0.2603E+00  0.2594E+00
      0.169  0.4547E-02  0.1634E-01  0.2607E+00  0.2607E+00
      0.250 -0.4211E-02 -0.1848E-02  0.2603E+00  0.2605E+00
      0.330 -0.3248E-02 -0.4196E-02  0.2601E+00  0.2602E+00
      0.411 -0.2102E-02 -0.2491E-02  0.2599E+00  0.2600E+00
      0.491 -0.3354E-02 -0.2674E-02  0.2596E+00  0.2598E+00
      0.572 -0.4102E-02 -0.4344E-02  0.2593E+00  0.2594E+00
      0.653  0.5567E-02 -0.4900E-03  0.2598E+00  0.2594E+00
      0.733  0.3508E-01  0.2074E-01  0.2626E+00  0.2611E+00
      0.814  0.7148E-01  0.5789E-01  0.2683E+00  0.2657E+00
      0.894  0.8134E-01  0.8225E-01  0.2749E+00  0.2723E+00
      0.975  0.5394E-01  0.6835E-01  0.2792E+00  0.2779E+00
      1.055  0.1724E-01  0.3101E-01  0.2806E+00  0.2804E+00
      1.136 -0.2612E-02  0.2842E-02  0.2804E+00  0.2806E+00
      1.217 -0.6278E-02 -0.6225E-02  0.2799E+00  0.2801E+00
      1.297 -0.2088E-02 -0.4098E-02  0.2797E+00  0.2797E+00
      1.378  0.1017E-01  0.6194E-02  0.2806E+00  0.2802E+00
      1.458  0.2923E-01  0.2460E-01  0.2829E+00  0.2822E+00
      1.539  0.4118E-01  0.3989E-01  0.2862E+00  0.2854E+00
      1.619  0.3387E-01  0.3727E-01  0.2890E+00  0.2884E+00
      1.700  0.1524E-01  0.1973E-01  0.2902E+00  0.2900E+00
      1.781  0.1684E-02  0.3951E-02  0.2903E+00  0.2904E+00
      1.861 -0.2137E-02 -0.1877E-02  0.2902E+00  0.2902E+00
      1.942 -0.1454E-02 -0.1720E-02  0.2900E+00  0.2901E+00
      2.022 -0.6795E-03 -0.7430E-03  0.2900E+00  0.2900E+00
      2.103 -0.1136E-02 -0.7620E-03  0.2899E+00  0.2899E+00
      2.183 -0.3079E-02 -0.2228E-02  0.2896E+00  0.2898E+00
      2.264 -0.4138E-02 -0.4272E-02  0.2893E+00  0.2894E+00
      2.344  0.4969E-02 -0.3589E-03  0.2897E+00  0.2894E+00
      2.425  0.3388E-01  0.2110E-01  0.2924E+00  0.2911E+00
      2.506  0.7056E-01  0.5831E-01  0.2981E+00  0.2958E+00
      2.586  0.8168E-01  0.8232E-01  0.3047E+00  0.3024E+00
      2.667  0.5521E-01  0.6803E-01  0.3092E+00  0.3079E+00
      2.747  0.1851E-01  0.3081E-01  0.3106E+00  0.3104E+00
      2.828 -0.1205E-02  0.3517E-02  0.3106E+00  0.3107E+00
      2.908 -0.4185E-02 -0.4260E-02  0.3102E+00  0.3103E+00
      2.989 -0.2051E-02 -0.2870E-02  0.3101E+00  0.3101E+00
      3.070 -0.7110E-03 -0.9585E-03  0.3100E+00  0.3100E+00
      3.150 -0.7988E-03 -0.3599E-03  0.3099E+00  0.3100E+00
      3.231 -0.1815E-02 -0.7512E-03  0.3098E+00  0.3099E+00
      3.311 -0.1703E-02 -0.1834E-02  0.3096E+00  0.3098E+00
      3.392  0.4937E-02 -0.1642E-02  0.3100E+00  0.3096E+00
      3.472  0.2142E-01  0.5239E-02  0.3118E+00  0.3101E+00
      3.553  0.3829E-01  0.2191E-01  0.3149E+00  0.3118E+00
      3.634  0.3917E-01  0.3857E-01  0.3180E+00  0.3149E+00
      3.714  0.2309E-01  0.3892E-01  0.3199E+00  0.3181E+00
      3.795  0.5989E-02  0.2260E-01  0.3204E+00  0.3199E+00
      3.875 -0.1482E-02  0.5669E-02  0.3202E+00  0.3204E+00
      3.956 -0.1895E-02 -0.1552E-02  0.3201E+00  0.3202E+00
      4.036 -0.7799E-03 -0.1869E-02  0.3200E+00  0.3201E+00
      4.117 -0.1888E-03 -0.7567E-03  0.3200E+00  0.3200E+00
      4.198 -0.2997E-04 -0.1811E-03  0.3200E+00  0.3200E+00
      4.278 -0.3251E-05 -0.2846E-04  0.3200E+00  0.3200E+00
      4.359 -0.2456E-06 -0.3058E-05  0.3200E+00  0.3200E+00
      4.439 -0.1321E-07 -0.2290E-06  0.3200E+00  0.3200E+00
      4.520 -0.4475E-08 -0.1283E-07  0.3200E+00  0.3200E+00
      4.600 -0.8636E-07 -0.1959E-07  0.3200E+00  0.3200E+00
      4.681 -0.1332E-05 -0.3484E-06  0.3200E+00  0.3200E+00
      4.762 -0.1455E-04 -0.4495E-05  0.3200E+00  0.3200E+00
      4.842 -0.1115E-03 -0.4080E-04  0.3200E+00  0.3200E+00
      4.923 -0.5900E-03 -0.2574E-03  0.3199E+00  0.3200E+00
      5.003 -0.2075E-02 -0.1102E-02  0.3198E+00  0.3199E+00
      5.084 -0.4316E-02 -0.3009E-02  0.3194E+00  0.3196E+00
      5.164 -0.2339E-02 -0.4087E-02  0.3192E+00  0.3193E+00
      5.245  0.1537E-01  0.3389E-02  0.3205E+00  0.3196E+00
      5.325  0.5530E-01  0.2985E-01  0.3249E+00  0.3220E+00
      5.406  0.9925E-01  0.7295E-01  0.3329E+00  0.3279E+00
      5.487  0.1111E+00  0.1066E+00  0.3419E+00  0.3365E+00
      5.567  0.7839E-01  0.1011E+00  0.3482E+00  0.3446E+00
      5.648  0.3067E-01  0.5991E-01  0.3507E+00  0.3494E+00
      5.728  0.1458E-02  0.1748E-01  0.3508E+00  0.3508E+00
      5.809 -0.5336E-02 -0.2593E-02  0.3504E+00  0.3506E+00
      5.889 -0.3179E-02 -0.4823E-02  0.3501E+00  0.3502E+00
      5.970 -0.1006E-02 -0.2225E-02  0.3500E+00  0.3501E+00
      6.051 -0.3070E-03 -0.6133E-03  0.3500E+00  0.3500E+00
      6.131 -0.5495E-03 -0.2480E-03  0.3499E+00  0.3500E+00
      6.212 -0.1538E-02 -0.6556E-03  0.3498E+00  0.3499E+00
      6.292 -0.2067E-02 -0.1725E-02  0.3497E+00  0.3498E+00
      6.373  0.2505E-02 -0.1848E-02  0.3499E+00  0.3496E+00
      6.453  0.1698E-01  0.4118E-02  0.3512E+00  0.3500E+00
      6.534  0.3531E-01  0.2002E-01  0.3541E+00  0.3516E+00
      6.615  0.4080E-01  0.3745E-01  0.3574E+00  0.3546E+00
      6.695  0.2738E-01  0.3973E-01  0.3596E+00  0.3578E+00
      6.776  0.8308E-02  0.2410E-01  0.3602E+00  0.3598E+00
      6.856 -0.3450E-02  0.5331E-02  0.3600E+00  0.3602E+00
      6.937 -0.6362E-02 -0.5091E-02  0.3594E+00  0.3598E+00
      7.017  0.2297E-02 -0.4797E-02  0.3596E+00  0.3594E+00
      7.098  0.3008E-01  0.1170E-01  0.3621E+00  0.3603E+00
      7.179  0.6758E-01  0.4684E-01  0.3675E+00  0.3641E+00
      7.259  0.8239E-01  0.7871E-01  0.3741E+00  0.3704E+00
      7.340  0.5877E-01  0.7608E-01  0.3789E+00  0.3766E+00
      7.420  0.2151E-01  0.4197E-01  0.3806E+00  0.3800E+00
      7.501 -0.2183E-03  0.9355E-02  0.3806E+00  0.3807E+00
      7.581 -0.4281E-02 -0.3501E-02  0.3802E+00  0.3804E+00
      7.662 -0.2237E-02 -0.3560E-02  0.3801E+00  0.3801E+00
      7.743 -0.6471E-03 -0.1375E-02  0.3800E+00  0.3800E+00
      7.823 -0.2326E-03 -0.3692E-03  0.3800E+00  0.3800E+00
      7.904 -0.6606E-03 -0.3926E-03  0.3799E+00  0.3800E+00
      7.984 -0.2270E-02 -0.1465E-02  0.3798E+00  0.3798E+00
      8.065 -0.4292E-02 -0.3674E-02  0.3794E+00  0.3796E+00
      8.145 -0.5426E-04 -0.3259E-02  0.3794E+00  0.3793E+00
      8.226  0.2197E-01  0.1060E-01  0.3812E+00  0.3801E+00
      8.306  0.5922E-01  0.4400E-01  0.3859E+00  0.3837E+00
      8.387  0.8203E-01  0.7710E-01  0.3926E+00  0.3899E+00
      8.468  0.6578E-01  0.7715E-01  0.3979E+00  0.3961E+00
      8.548  0.2768E-01  0.4335E-01  0.4001E+00  0.3996E+00
      8.629  0.4502E-02  0.9265E-02  0.4004E+00  0.4004E+00
      8.709  0.1039E-01  0.3304E-03  0.4013E+00  0.4004E+00
      8.790  0.3057E-01  0.1511E-01  0.4037E+00  0.4016E+00
      8.870  0.4037E-01  0.3517E-01  0.4070E+00  0.4044E+00
      8.951  0.2972E-01  0.3990E-01  0.4094E+00  0.4076E+00
      9.032  0.1118E-01  0.2563E-01  0.4103E+00  0.4097E+00
      9.112  0.4847E-04  0.7781E-02  0.4103E+00  0.4103E+00
      9.193 -0.2150E-02 -0.1033E-02  0.4101E+00  0.4103E+00
      9.273 -0.1149E-02 -0.2018E-02  0.4100E+00  0.4101E+00
      9.354 -0.3297E-03 -0.9089E-03  0.4100E+00  0.4100E+00
      9.434 -0.6046E-04 -0.2340E-03  0.4100E+00  0.4100E+00
      9.515 -0.7489E-05 -0.3919E-04  0.4100E+00  0.4100E+00
      9.596 -0.6427E-06 -0.4465E-05  0.4100E+00  0.4100E+00
      9.676 -0.3873E-07 -0.3538E-06  0.4100E+00  0.4100E+00
      9.757 -0.1652E-08 -0.1972E-07  0.4100E+00  0.4100E+00
      9.837 -0.5015E-10 -0.7796E-09  0.4100E+00  0.4100E+00
      9.918 -0.1087E-11 -0.2194E-10  0.4100E+00  0.4100E+00
      9.998 -0.1687E-13 -0.4415E-12  0.4100E+00  0.4100E+00
     10.079 -0.1929E-15 -0.6366E-14  0.4100E+00  0.4100E+00
     10.160  0.0000E+00 -0.5512E-16  0.4100E+00  0.4100E+00
     10.240  0.0000E+00  0.0000E+00  0.4100E+00  0.4100E+00
     10.321  0.0000E+00  0.0000E+00  0.4100E+00  0.4100E+00
     10.401  0.0000E+00  0.0000E+00  0.4100E+00  0.4100E+00
     10.482  0.0000E+00  0.0000E+00  0.4100E+00  0.4100E+00
     10.562  0.0000E+00  0.0000E+00  0.4100E+00  0.4100E+00
     10.643  0.0000E+00  0.0000E+00  0.4100E+00  0.4100E+00
     10.724  0.0000E+00  0.0000E+00  0.4100E+00  0.4100E+00
     10.804  0.0000E+00  0.0000E+00  0.4100E+00  0.4100E+00
     10.885  0.0000E+00  0.0000E+00  0.4100E+00  0.4100E+00
