  33  33   0   0
  0.1602717E+02  0.8087052E-09  0.8087052E-09  0.8087052E-09  0.5000000E-15
  1.000000000000000E-004
  CAR 
 unknown system                          
     12.71218148     -5.13820896  301      8.39174852      1.00000000
     -5.138  0.0000E+00  0.0000E+00
     -5.079  0.0000E+00  0.0000E+00
     -5.019  0.0000E+00  0.0000E+00
     -4.960  0.0000E+00  0.0000E+00
     -4.900  0.0000E+00  0.0000E+00
     -4.841  0.0000E+00  0.0000E+00
     -4.781 -0.2004E-29 -0.1192E-30
     -4.722 -0.2325E-27 -0.1396E-28
     -4.662 -0.2273E-25 -0.1367E-26
     -4.603 -0.1858E-23 -0.1119E-24
     -4.543 -0.1270E-21 -0.7669E-23
     -4.484 -0.7255E-20 -0.4394E-21
     -4.424 -0.3463E-18 -0.2105E-19
     -4.365 -0.1381E-16 -0.8428E-18
     -4.305 -0.4501E-15 -0.2763E-16
     -4.246 -0.1236E-13 -0.7633E-15
     -4.186 -0.2858E-12 -0.1777E-13
     -4.127 -0.5501E-11 -0.3451E-12
     -4.067 -0.8813E-10 -0.5589E-11
     -4.008 -0.1174E-08 -0.7544E-10
     -3.948 -0.1298E-07 -0.8477E-09
     -3.889 -0.1189E-06 -0.7921E-08
     -3.829 -0.8997E-06 -0.6145E-07
     -3.770 -0.5604E-05 -0.3949E-06
     -3.710 -0.2858E-04 -0.2095E-05
     -3.651 -0.1183E-03 -0.9136E-05
     -3.591 -0.3923E-03 -0.3248E-04
     -3.532 -0.1015E-02 -0.9290E-04
     -3.472 -0.1937E-02 -0.2082E-03
     -3.413 -0.2262E-02 -0.3428E-03
     -3.353  0.2614E-03 -0.3272E-03
     -3.294  0.8314E-02  0.1674E-03
     -3.234  0.2204E-01  0.1479E-02
     -3.175  0.3649E-01  0.3650E-02
     -3.115  0.4369E-01  0.6249E-02
     -3.056  0.3901E-01  0.8570E-02
     -2.996  0.2550E-01  0.1009E-01
     -2.937  0.1100E-01  0.1074E-01
     -2.877  0.1523E-02  0.1083E-01
     -2.818 -0.2046E-02  0.1071E-01
     -2.758 -0.2121E-02  0.1059E-01
     -2.699 -0.1210E-02  0.1051E-01
     -2.639 -0.4974E-03  0.1048E-01
     -2.580 -0.1582E-03  0.1047E-01
     -2.520 -0.4011E-04  0.1047E-01
     -2.461 -0.8236E-05  0.1047E-01
     -2.401 -0.1382E-05  0.1047E-01
     -2.342 -0.1908E-06  0.1047E-01
     -2.282 -0.2174E-07  0.1047E-01
     -2.223 -0.2051E-08  0.1047E-01
     -2.163 -0.1656E-09  0.1047E-01
     -2.104 -0.9550E-10  0.1047E-01
     -2.044 -0.1188E-08  0.1047E-01
     -1.985 -0.1378E-07  0.1047E-01
     -1.925 -0.1326E-06  0.1047E-01
     -1.866 -0.1055E-05  0.1047E-01
     -1.806 -0.6920E-05  0.1047E-01
     -1.747 -0.3724E-04  0.1047E-01
     -1.687 -0.1632E-03  0.1046E-01
     -1.628 -0.5756E-03  0.1042E-01
     -1.568 -0.1600E-02  0.1033E-01
     -1.509 -0.3352E-02  0.1013E-01
     -1.449 -0.4677E-02  0.9852E-02
     -1.390 -0.1894E-02  0.9739E-02
     -1.330  0.1037E-01  0.1036E-01
     -1.271  0.3411E-01  0.1239E-01
     -1.211  0.6201E-01  0.1608E-01
     -1.152  0.7929E-01  0.2079E-01
     -1.092  0.7687E-01  0.2537E-01
     -1.033  0.6357E-01  0.2915E-01
     -0.973  0.6062E-01  0.3276E-01
     -0.914  0.7997E-01  0.3751E-01
     -0.854  0.1094E+00  0.4402E-01
     -0.795  0.1231E+00  0.5135E-01
     -0.735  0.1075E+00  0.5774E-01
     -0.676  0.7458E-01  0.6218E-01
     -0.616  0.4732E-01  0.6500E-01
     -0.557  0.3712E-01  0.6720E-01
     -0.497  0.3704E-01  0.6941E-01
     -0.438  0.3429E-01  0.7145E-01
     -0.378  0.2416E-01  0.7289E-01
     -0.319  0.1131E-01  0.7356E-01
     -0.259  0.1945E-02  0.7367E-01
     -0.200 -0.1955E-02  0.7356E-01
     -0.140 -0.2225E-02  0.7343E-01
     -0.081 -0.1327E-02  0.7335E-01
     -0.021 -0.5641E-03  0.7331E-01
      0.038 -0.1847E-03  0.7330E-01
      0.098 -0.4817E-04  0.7330E-01
      0.157 -0.1070E-04  0.7330E-01
      0.217 -0.5667E-05  0.7330E-01
      0.276 -0.2260E-04  0.7330E-01
      0.336 -0.1041E-03  0.7329E-01
      0.395 -0.3921E-03  0.7327E-01
      0.455 -0.1176E-02  0.7320E-01
      0.514 -0.2714E-02  0.7304E-01
      0.574 -0.4441E-02  0.7277E-01
      0.633 -0.3647E-02  0.7255E-01
      0.693  0.4713E-02  0.7284E-01
      0.752  0.2462E-01  0.7430E-01
      0.812  0.5300E-01  0.7745E-01
      0.871  0.7804E-01  0.8210E-01
      0.931  0.8719E-01  0.8729E-01
      0.990  0.7820E-01  0.9194E-01
      1.050  0.6058E-01  0.9554E-01
      1.109  0.4695E-01  0.9834E-01
      1.169  0.4676E-01  0.1011E+00
      1.228  0.6616E-01  0.1051E+00
      1.288  0.1052E+00  0.1113E+00
      1.347  0.1514E+00  0.1203E+00
      1.407  0.1820E+00  0.1312E+00
      1.466  0.1822E+00  0.1420E+00
      1.526  0.1607E+00  0.1516E+00
      1.585  0.1416E+00  0.1600E+00
      1.645  0.1405E+00  0.1683E+00
      1.704  0.1488E+00  0.1772E+00
      1.764  0.1451E+00  0.1858E+00
      1.823  0.1181E+00  0.1929E+00
      1.883  0.7574E-01  0.1974E+00
      1.942  0.3515E-01  0.1995E+00
      2.002  0.8185E-02  0.1999E+00
      2.061 -0.3708E-02  0.1997E+00
      2.121 -0.5785E-02  0.1994E+00
      2.180 -0.4033E-02  0.1991E+00
      2.240 -0.1996E-02  0.1990E+00
      2.299 -0.7677E-03  0.1990E+00
      2.359 -0.2371E-03  0.1990E+00
      2.418 -0.5979E-04  0.1990E+00
      2.478 -0.1339E-04  0.1990E+00
      2.537 -0.8633E-05  0.1990E+00
      2.597 -0.3302E-04  0.1990E+00
      2.656 -0.1330E-03  0.1989E+00
      2.716 -0.4316E-03  0.1989E+00
      2.775 -0.1091E-02  0.1989E+00
      2.835 -0.2014E-02  0.1987E+00
      2.894 -0.2199E-02  0.1986E+00
      2.954  0.7047E-03  0.1986E+00
      3.013  0.9243E-02  0.1992E+00
      3.073  0.2301E-01  0.2006E+00
      3.132  0.3622E-01  0.2027E+00
      3.192  0.4032E-01  0.2051E+00
      3.251  0.3129E-01  0.2070E+00
      3.311  0.1523E-01  0.2079E+00
      3.370  0.6756E-02  0.2083E+00
      3.430  0.2072E-01  0.2095E+00
      3.489  0.6234E-01  0.2132E+00
      3.549  0.1219E+00  0.2205E+00
      3.608  0.1786E+00  0.2311E+00
      3.668  0.2126E+00  0.2438E+00
      3.727  0.2144E+00  0.2565E+00
      3.787  0.1863E+00  0.2676E+00
      3.846  0.1386E+00  0.2758E+00
      3.906  0.8508E-01  0.2809E+00
      3.965  0.3944E-01  0.2833E+00
      4.025  0.9742E-02  0.2838E+00
      4.084 -0.3780E-02  0.2836E+00
      4.144 -0.6500E-02  0.2832E+00
      4.203 -0.4707E-02  0.2829E+00
      4.263 -0.2398E-02  0.2828E+00
      4.322 -0.9466E-03  0.2827E+00
      4.382 -0.2997E-03  0.2827E+00
      4.442 -0.7965E-04  0.2827E+00
      4.501 -0.3143E-04  0.2827E+00
      4.561 -0.7531E-04  0.2827E+00
      4.620 -0.2843E-03  0.2827E+00
      4.680 -0.9012E-03  0.2826E+00
      4.739 -0.2270E-02  0.2825E+00
      4.799 -0.4325E-02  0.2823E+00
      4.858 -0.5373E-02  0.2819E+00
      4.918 -0.8815E-03  0.2819E+00
      4.977  0.1546E-01  0.2828E+00
      5.037  0.4660E-01  0.2856E+00
      5.096  0.8565E-01  0.2907E+00
      5.156  0.1157E+00  0.2976E+00
      5.215  0.1199E+00  0.3047E+00
      5.275  0.9558E-01  0.3104E+00
      5.334  0.5630E-01  0.3137E+00
      5.394  0.2111E-01  0.3150E+00
      5.453  0.7659E-03  0.3150E+00
      5.513 -0.5729E-02  0.3147E+00
      5.572 -0.5044E-02  0.3144E+00
      5.632 -0.2790E-02  0.3142E+00
      5.691 -0.1372E-02  0.3141E+00
      5.751 -0.1151E-02  0.3141E+00
      5.810 -0.1787E-02  0.3140E+00
      5.870 -0.2393E-02  0.3138E+00
      5.929 -0.1006E-02  0.3138E+00
      5.989  0.5008E-02  0.3141E+00
      6.048  0.1647E-01  0.3150E+00
      6.108  0.2969E-01  0.3168E+00
      6.167  0.3809E-01  0.3191E+00
      6.227  0.3918E-01  0.3214E+00
      6.286  0.3934E-01  0.3237E+00
      6.346  0.4814E-01  0.3266E+00
      6.405  0.6641E-01  0.3306E+00
      6.465  0.8303E-01  0.3355E+00
      6.524  0.8627E-01  0.3406E+00
      6.584  0.7627E-01  0.3452E+00
      6.643  0.6420E-01  0.3490E+00
      6.703  0.6122E-01  0.3526E+00
      6.762  0.7007E-01  0.3568E+00
      6.822  0.8442E-01  0.3618E+00
      6.881  0.9380E-01  0.3674E+00
      6.941  0.9178E-01  0.3729E+00
      7.000  0.8234E-01  0.3778E+00
      7.060  0.7757E-01  0.3824E+00
      7.119  0.8775E-01  0.3876E+00
      7.179  0.1129E+00  0.3943E+00
      7.238  0.1431E+00  0.4028E+00
      7.298  0.1660E+00  0.4127E+00
      7.357  0.1764E+00  0.4232E+00
      7.417  0.1777E+00  0.4338E+00
      7.476  0.1760E+00  0.4443E+00
      7.536  0.1737E+00  0.4546E+00
      7.595  0.1684E+00  0.4646E+00
      7.655  0.1557E+00  0.4739E+00
      7.714  0.1321E+00  0.4817E+00
      7.774  0.9752E-01  0.4875E+00
      7.833  0.5769E-01  0.4910E+00
      7.893  0.2363E-01  0.4924E+00
      7.952  0.5984E-02  0.4927E+00
      8.012  0.8538E-02  0.4932E+00
      8.071  0.2634E-01  0.4948E+00
      8.131  0.4861E-01  0.4977E+00
      8.190  0.6400E-01  0.5015E+00
      8.250  0.6634E-01  0.5055E+00
      8.309  0.5836E-01  0.5089E+00
      8.369  0.5041E-01  0.5119E+00
      8.428  0.5251E-01  0.5151E+00
      8.488  0.6561E-01  0.5190E+00
      8.547  0.8196E-01  0.5238E+00
      8.607  0.9587E-01  0.5295E+00
      8.666  0.1109E+00  0.5361E+00
      8.726  0.1334E+00  0.5441E+00
      8.785  0.1609E+00  0.5537E+00
      8.845  0.1811E+00  0.5644E+00
      8.904  0.1810E+00  0.5752E+00
      8.964  0.1578E+00  0.5846E+00
      9.023  0.1245E+00  0.5920E+00
      9.083  0.1046E+00  0.5982E+00
      9.142  0.1150E+00  0.6051E+00
      9.202  0.1500E+00  0.6140E+00
      9.261  0.1858E+00  0.6250E+00
      9.321  0.2020E+00  0.6371E+00
      9.380  0.1973E+00  0.6488E+00
      9.440  0.1824E+00  0.6596E+00
      9.499  0.1650E+00  0.6695E+00
      9.559  0.1478E+00  0.6783E+00
      9.618  0.1355E+00  0.6863E+00
      9.678  0.1337E+00  0.6943E+00
      9.737  0.1382E+00  0.7025E+00
      9.797  0.1334E+00  0.7104E+00
      9.856  0.1074E+00  0.7168E+00
      9.916  0.6702E-01  0.7208E+00
      9.975  0.3351E-01  0.7228E+00
     10.035  0.2532E-01  0.7243E+00
     10.094  0.4306E-01  0.7269E+00
     10.154  0.6935E-01  0.7310E+00
     10.213  0.8228E-01  0.7359E+00
     10.273  0.7161E-01  0.7402E+00
     10.332  0.4443E-01  0.7428E+00
     10.392  0.1651E-01  0.7438E+00
     10.451 -0.2582E-03  0.7438E+00
     10.511 -0.2601E-02  0.7436E+00
     10.570  0.7071E-02  0.7440E+00
     10.630  0.2332E-01  0.7454E+00
     10.689  0.3813E-01  0.7477E+00
     10.749  0.4341E-01  0.7503E+00
     10.808  0.3642E-01  0.7524E+00
     10.868  0.2202E-01  0.7538E+00
     10.927  0.8311E-02  0.7543E+00
     10.987  0.2611E-03  0.7543E+00
     11.046 -0.2262E-02  0.7541E+00
     11.106 -0.1937E-02  0.7540E+00
     11.165 -0.1015E-02  0.7540E+00
     11.225 -0.3923E-03  0.7539E+00
     11.284 -0.1183E-03  0.7539E+00
     11.344 -0.2858E-04  0.7539E+00
     11.403 -0.5604E-05  0.7539E+00
     11.463 -0.8997E-06  0.7539E+00
     11.522 -0.1189E-06  0.7539E+00
     11.582 -0.1298E-07  0.7539E+00
     11.641 -0.1174E-08  0.7539E+00
     11.701 -0.8813E-10  0.7539E+00
     11.760 -0.5501E-11  0.7539E+00
     11.820 -0.2858E-12  0.7539E+00
     11.879 -0.1235E-13  0.7539E+00
     11.939 -0.4689E-15  0.7539E+00
     11.998  0.0000E+00  0.7539E+00
     12.058  0.0000E+00  0.7539E+00
     12.117  0.0000E+00  0.7539E+00
     12.177  0.0000E+00  0.7539E+00
     12.236  0.0000E+00  0.7539E+00
     12.296  0.0000E+00  0.7539E+00
     12.355  0.0000E+00  0.7539E+00
     12.415  0.0000E+00  0.7539E+00
     12.474  0.0000E+00  0.7539E+00
     12.534  0.0000E+00  0.7539E+00
     12.593  0.0000E+00  0.7539E+00
     12.653  0.0000E+00  0.7539E+00
     12.712  0.0000E+00  0.7539E+00
