   4   4   0   0
  0.1692400E+02  0.4075564E-09  0.4075564E-09  0.4075564E-09  0.5000000E-15
  1.000000000000000E-004
  CAR 
 unknown system                          
     13.18437845     -3.62352698  301      6.91923151      1.00000000
     -3.624  0.0000E+00  0.0000E+00
     -3.568  0.0000E+00  0.0000E+00
     -3.511  0.0000E+00  0.0000E+00
     -3.455  0.0000E+00  0.0000E+00
     -3.399  0.0000E+00  0.0000E+00
     -3.343  0.0000E+00  0.0000E+00
     -3.287  0.0000E+00  0.0000E+00
     -3.231 -0.3632E-28 -0.2035E-29
     -3.175 -0.2893E-26 -0.1641E-27
     -3.119 -0.1987E-24 -0.1130E-25
     -3.063 -0.1165E-22 -0.6638E-24
     -3.007 -0.5823E-21 -0.3329E-22
     -2.951 -0.2483E-19 -0.1425E-20
     -2.895 -0.9030E-18 -0.5202E-19
     -2.839 -0.2799E-16 -0.1620E-17
     -2.783 -0.7187E-15 -0.4189E-16
     -2.727 -0.1610E-13 -0.9439E-15
     -2.671 -0.3073E-12 -0.1816E-13
     -2.615 -0.4990E-11 -0.2978E-12
     -2.559 -0.6885E-10 -0.4155E-11
     -2.503 -0.8065E-09 -0.4934E-10
     -2.447 -0.8010E-08 -0.4981E-09
     -2.391 -0.6735E-07 -0.4271E-08
     -2.335 -0.4783E-06 -0.3107E-07
     -2.279 -0.2862E-05 -0.1914E-06
     -2.223 -0.1436E-04 -0.9961E-06
     -2.167 -0.6014E-04 -0.4366E-05
     -2.111 -0.2082E-03 -0.1603E-04
     -2.055 -0.5870E-03 -0.4892E-04
     -1.999 -0.1310E-02 -0.1223E-03
     -1.943 -0.2162E-02 -0.2434E-03
     -1.887 -0.2071E-02 -0.3595E-03
     -1.831  0.1098E-02 -0.2979E-03
     -1.775  0.9464E-02  0.2323E-03
     -1.719  0.2270E-01  0.1504E-02
     -1.663  0.3634E-01  0.3540E-02
     -1.607  0.4361E-01  0.5984E-02
     -1.551  0.4032E-01  0.8243E-02
     -1.495  0.2841E-01  0.9834E-02
     -1.438  0.1426E-01  0.1063E-01
     -1.382  0.3716E-02  0.1084E-01
     -1.326 -0.1327E-02  0.1077E-01
     -1.270 -0.2337E-02  0.1064E-01
     -1.214 -0.1666E-02  0.1054E-01
     -1.158 -0.8308E-03  0.1050E-01
     -1.102 -0.3217E-03  0.1048E-01
     -1.046 -0.1005E-03  0.1047E-01
     -0.990 -0.2585E-04  0.1047E-01
     -0.934 -0.5528E-05  0.1047E-01
     -0.878 -0.9898E-06  0.1047E-01
     -0.822 -0.1491E-06  0.1047E-01
     -0.766 -0.1895E-07  0.1047E-01
     -0.710 -0.2037E-08  0.1047E-01
     -0.654 -0.1856E-09  0.1047E-01
     -0.598 -0.1435E-10  0.1047E-01
     -0.542 -0.9422E-12  0.1047E-01
     -0.486 -0.5262E-13  0.1047E-01
     -0.430 -0.2490E-14  0.1047E-01
     -0.374 -0.1245E-15  0.1047E-01
     -0.318  0.0000E+00  0.1047E-01
     -0.262  0.0000E+00  0.1047E-01
     -0.206  0.0000E+00  0.1047E-01
     -0.150  0.0000E+00  0.1047E-01
     -0.094  0.0000E+00  0.1047E-01
     -0.038  0.0000E+00  0.1047E-01
      0.018  0.0000E+00  0.1047E-01
      0.074  0.0000E+00  0.1047E-01
      0.130  0.0000E+00  0.1047E-01
      0.186  0.0000E+00  0.1047E-01
      0.242  0.0000E+00  0.1047E-01
      0.298  0.0000E+00  0.1047E-01
      0.354  0.0000E+00  0.1047E-01
      0.410  0.0000E+00  0.1047E-01
      0.466  0.0000E+00  0.1047E-01
      0.522  0.0000E+00  0.1047E-01
      0.578  0.0000E+00  0.1047E-01
      0.634  0.0000E+00  0.1047E-01
      0.691  0.0000E+00  0.1047E-01
      0.747  0.0000E+00  0.1047E-01
      0.803  0.0000E+00  0.1047E-01
      0.859  0.0000E+00  0.1047E-01
      0.915  0.0000E+00  0.1047E-01
      0.971  0.0000E+00  0.1047E-01
      1.027  0.0000E+00  0.1047E-01
      1.083 -0.1775E-27  0.1047E-01
      1.139 -0.1389E-25  0.1047E-01
      1.195 -0.9376E-24  0.1047E-01
      1.251 -0.5401E-22  0.1047E-01
      1.307 -0.2654E-20  0.1047E-01
      1.363 -0.1112E-18  0.1047E-01
      1.419 -0.3974E-17  0.1047E-01
      1.475 -0.1211E-15  0.1047E-01
      1.531 -0.3049E-14  0.1047E-01
      1.587 -0.6721E-13  0.1047E-01
      1.643 -0.1260E-11  0.1047E-01
      1.699 -0.2011E-10  0.1047E-01
      1.755 -0.2725E-09  0.1047E-01
      1.811 -0.3135E-08  0.1047E-01
      1.867 -0.3058E-07  0.1047E-01
      1.923 -0.2524E-06  0.1047E-01
      1.979 -0.1760E-05  0.1047E-01
      2.035 -0.1033E-04  0.1047E-01
      2.091 -0.5085E-04  0.1047E-01
      2.147 -0.2086E-03  0.1046E-01
      2.203 -0.7069E-03  0.1042E-01
      2.259 -0.1946E-02  0.1031E-01
      2.315 -0.4220E-02  0.1007E-01
      2.371 -0.6686E-02  0.9696E-02
      2.427 -0.5759E-02  0.9374E-02
      2.483  0.5206E-02  0.9665E-02
      2.539  0.3215E-01  0.1147E-01
      2.595  0.7287E-01  0.1555E-01
      2.651  0.1127E+00  0.2186E-01
      2.707  0.1314E+00  0.2922E-01
      2.763  0.1180E+00  0.3584E-01
      2.820  0.8053E-01  0.4035E-01
      2.876  0.3859E-01  0.4251E-01
      2.932  0.8709E-02  0.4300E-01
      2.988 -0.4770E-02  0.4273E-01
      3.044 -0.6926E-02  0.4234E-01
      3.100 -0.4698E-02  0.4208E-01
      3.156 -0.2272E-02  0.4195E-01
      3.212 -0.8584E-03  0.4190E-01
      3.268 -0.2624E-03  0.4189E-01
      3.324 -0.6610E-04  0.4189E-01
      3.380 -0.1386E-04  0.4188E-01
      3.436 -0.2434E-05  0.4188E-01
      3.492 -0.3599E-06  0.4188E-01
      3.548 -0.4491E-07  0.4188E-01
      3.604 -0.4741E-08  0.4188E-01
      3.660 -0.4242E-09  0.4188E-01
      3.716 -0.3221E-10  0.4188E-01
      3.772 -0.2078E-11  0.4188E-01
      3.828 -0.1140E-12  0.4188E-01
      3.884 -0.5229E-14  0.4188E-01
      3.940 -0.2490E-15  0.4188E-01
      3.996  0.0000E+00  0.4188E-01
      4.052  0.0000E+00  0.4188E-01
      4.108  0.0000E+00  0.4188E-01
      4.164  0.0000E+00  0.4188E-01
      4.220  0.0000E+00  0.4188E-01
      4.276  0.0000E+00  0.4188E-01
      4.332  0.0000E+00  0.4188E-01
      4.388  0.0000E+00  0.4188E-01
      4.444  0.0000E+00  0.4188E-01
      4.500  0.0000E+00  0.4188E-01
      4.556  0.0000E+00  0.4188E-01
      4.612  0.0000E+00  0.4188E-01
      4.668  0.0000E+00  0.4188E-01
      4.724  0.0000E+00  0.4188E-01
      4.780  0.0000E+00  0.4188E-01
      4.836  0.0000E+00  0.4188E-01
      4.892  0.0000E+00  0.4188E-01
      4.949  0.0000E+00  0.4188E-01
      5.005  0.0000E+00  0.4188E-01
      5.061  0.0000E+00  0.4188E-01
      5.117  0.0000E+00  0.4188E-01
      5.173  0.0000E+00  0.4188E-01
      5.229 -0.3509E-29  0.4188E-01
      5.285 -0.3156E-27  0.4188E-01
      5.341 -0.2445E-25  0.4188E-01
      5.397 -0.1616E-23  0.4188E-01
      5.453 -0.9117E-22  0.4188E-01
      5.509 -0.4387E-20  0.4188E-01
      5.565 -0.1800E-18  0.4188E-01
      5.621 -0.6299E-17  0.4188E-01
      5.677 -0.1879E-15  0.4188E-01
      5.733 -0.4619E-14  0.4188E-01
      5.789 -0.9992E-13  0.4188E-01
      5.845 -0.1834E-11  0.4188E-01
      5.901 -0.2864E-10  0.4188E-01
      5.957 -0.3799E-09  0.4188E-01
      6.013 -0.4276E-08  0.4188E-01
      6.069 -0.4080E-07  0.4188E-01
      6.125 -0.3294E-06  0.4188E-01
      6.181 -0.2245E-05  0.4188E-01
      6.237 -0.1288E-04  0.4188E-01
      6.293 -0.6193E-04  0.4188E-01
      6.349 -0.2479E-03  0.4187E-01
      6.405 -0.8181E-03  0.4182E-01
      6.461 -0.2187E-02  0.4170E-01
      6.517 -0.4578E-02  0.4144E-01
      6.573 -0.6876E-02  0.4106E-01
      6.629 -0.5050E-02  0.4077E-01
      6.685  0.7781E-02  0.4121E-01
      6.741  0.3694E-01  0.4328E-01
      6.797  0.7862E-01  0.4768E-01
      6.853  0.1168E+00  0.5423E-01
      6.909  0.1315E+00  0.6159E-01
      6.965  0.1141E+00  0.6798E-01
      7.021  0.7479E-01  0.7217E-01
      7.078  0.3373E-01  0.7406E-01
      7.134  0.6034E-02  0.7440E-01
      7.190 -0.5542E-02  0.7409E-01
      7.246 -0.6756E-02  0.7371E-01
      7.302 -0.4339E-02  0.7347E-01
      7.358 -0.2025E-02  0.7336E-01
      7.414 -0.7426E-03  0.7331E-01
      7.470 -0.2211E-03  0.7330E-01
      7.526 -0.5433E-04  0.7330E-01
      7.582 -0.1112E-04  0.7330E-01
      7.638 -0.1910E-05  0.7330E-01
      7.694 -0.2760E-06  0.7330E-01
      7.750 -0.3369E-07  0.7330E-01
      7.806 -0.3479E-08  0.7330E-01
      7.862 -0.3046E-09  0.7330E-01
      7.918 -0.2264E-10  0.7330E-01
      7.974 -0.1429E-11  0.7330E-01
      8.030 -0.7682E-13  0.7330E-01
      8.086 -0.3486E-14  0.7330E-01
      8.142 -0.1245E-15  0.7330E-01
      8.198  0.0000E+00  0.7330E-01
      8.254  0.0000E+00  0.7330E-01
      8.310  0.0000E+00  0.7330E-01
      8.366  0.0000E+00  0.7330E-01
      8.422  0.0000E+00  0.7330E-01
      8.478  0.0000E+00  0.7330E-01
      8.534  0.0000E+00  0.7330E-01
      8.590  0.0000E+00  0.7330E-01
      8.646  0.0000E+00  0.7330E-01
      8.702  0.0000E+00  0.7330E-01
      8.758  0.0000E+00  0.7330E-01
      8.814  0.0000E+00  0.7330E-01
      8.870  0.0000E+00  0.7330E-01
      8.926  0.0000E+00  0.7330E-01
      8.982  0.0000E+00  0.7330E-01
      9.038  0.0000E+00  0.7330E-01
      9.094  0.0000E+00  0.7330E-01
      9.150  0.0000E+00  0.7330E-01
      9.207  0.0000E+00  0.7330E-01
      9.263  0.0000E+00  0.7330E-01
      9.319  0.0000E+00  0.7330E-01
      9.375 -0.3244E-28  0.7330E-01
      9.431 -0.2594E-26  0.7330E-01
      9.487 -0.1789E-24  0.7330E-01
      9.543 -0.1053E-22  0.7330E-01
      9.599 -0.5286E-21  0.7330E-01
      9.655 -0.2263E-19  0.7330E-01
      9.711 -0.8263E-18  0.7330E-01
      9.767 -0.2572E-16  0.7330E-01
      9.823 -0.6614E-15  0.7330E-01
      9.879 -0.1491E-13  0.7330E-01
      9.935 -0.2859E-12  0.7330E-01
      9.991 -0.4661E-11  0.7330E-01
     10.047 -0.6457E-10  0.7330E-01
     10.103 -0.7596E-09  0.7330E-01
     10.159 -0.7576E-08  0.7330E-01
     10.215 -0.6398E-07  0.7330E-01
     10.271 -0.4565E-06  0.7330E-01
     10.327 -0.2745E-05  0.7330E-01
     10.383 -0.1386E-04  0.7330E-01
     10.439 -0.5844E-04  0.7329E-01
     10.495 -0.2043E-03  0.7328E-01
     10.551 -0.5845E-03  0.7325E-01
     10.607 -0.1339E-02  0.7317E-01
     10.663 -0.2346E-02  0.7304E-01
     10.719 -0.2744E-02  0.7289E-01
     10.775 -0.7012E-03  0.7285E-01
     10.831  0.5852E-02  0.7318E-01
     10.887  0.1766E-01  0.7417E-01
     10.943  0.3340E-01  0.7604E-01
     10.999  0.5098E-01  0.7890E-01
     11.055  0.6906E-01  0.8276E-01
     11.111  0.8559E-01  0.8756E-01
     11.167  0.9524E-01  0.9290E-01
     11.223  0.9113E-01  0.9800E-01
     11.279  0.7143E-01  0.1020E+00
     11.336  0.4306E-01  0.1044E+00
     11.392  0.1724E-01  0.1054E+00
     11.448  0.1348E-02  0.1055E+00
     11.504 -0.4472E-02  0.1052E+00
     11.560 -0.4428E-02  0.1050E+00
     11.616 -0.2646E-02  0.1048E+00
     11.672 -0.1180E-02  0.1047E+00
     11.728 -0.4175E-03  0.1047E+00
     11.784 -0.1204E-03  0.1047E+00
     11.840 -0.2875E-04  0.1047E+00
     11.896 -0.5725E-05  0.1047E+00
     11.952 -0.9568E-06  0.1047E+00
     12.008 -0.1347E-06  0.1047E+00
     12.064 -0.1602E-07  0.1047E+00
     12.120 -0.1613E-08  0.1047E+00
     12.176 -0.1377E-09  0.1047E+00
     12.232 -0.9981E-11  0.1047E+00
     12.288 -0.6147E-12  0.1047E+00
     12.344 -0.3220E-13  0.1047E+00
     12.400 -0.1411E-14  0.1047E+00
     12.456 -0.8300E-16  0.1047E+00
     12.512  0.0000E+00  0.1047E+00
     12.568  0.0000E+00  0.1047E+00
     12.624  0.0000E+00  0.1047E+00
     12.680  0.0000E+00  0.1047E+00
     12.736  0.0000E+00  0.1047E+00
     12.792  0.0000E+00  0.1047E+00
     12.848  0.0000E+00  0.1047E+00
     12.904  0.0000E+00  0.1047E+00
     12.960  0.0000E+00  0.1047E+00
     13.016  0.0000E+00  0.1047E+00
     13.072  0.0000E+00  0.1047E+00
     13.128  0.0000E+00  0.1047E+00
     13.184  0.0000E+00  0.1047E+00
