   3   3   0   0
  0.1535906E+02  0.3585051E-09  0.3585051E-09  0.3585051E-09  0.5000000E-15
  1.000000000000000E-004
  CAR 
 unknown system                          
      7.67263313     -5.64636115  301      5.03338787      1.00000000
     -5.646  0.0000E+00  0.0000E+00
     -5.602  0.0000E+00  0.0000E+00
     -5.558  0.0000E+00  0.0000E+00
     -5.513  0.0000E+00  0.0000E+00
     -5.469  0.0000E+00  0.0000E+00
     -5.424  0.0000E+00  0.0000E+00
     -5.380  0.0000E+00  0.0000E+00
     -5.336  0.0000E+00  0.0000E+00
     -5.291  0.0000E+00  0.0000E+00
     -5.247 -0.1576E-25 -0.6996E-27
     -5.202 -0.4933E-24 -0.2260E-25
     -5.158 -0.1438E-22 -0.6611E-24
     -5.114 -0.3795E-21 -0.1751E-22
     -5.069 -0.9060E-20 -0.4198E-21
     -5.025 -0.1958E-18 -0.9110E-20
     -4.980 -0.3826E-17 -0.1790E-18
     -4.936 -0.6766E-16 -0.3183E-17
     -4.892 -0.1082E-14 -0.5123E-16
     -4.847 -0.1565E-13 -0.7462E-15
     -4.803 -0.1972E-12 -0.9503E-14
     -4.758 -0.2343E-11 -0.1135E-12
     -4.714 -0.2497E-10 -0.1222E-11
     -4.670 -0.2403E-09 -0.1189E-10
     -4.625 -0.2088E-08 -0.1046E-09
     -4.581 -0.1637E-07 -0.8314E-09
     -4.536 -0.1158E-06 -0.5972E-08
     -4.492 -0.7382E-06 -0.3875E-07
     -4.448 -0.4239E-05 -0.2269E-06
     -4.403 -0.2190E-04 -0.1199E-05
     -4.359 -0.1017E-03 -0.5716E-05
     -4.314 -0.4240E-03 -0.2454E-04
     -4.270 -0.1583E-02 -0.9482E-04
     -4.226 -0.5280E-02 -0.3292E-03
     -4.181 -0.1568E-01 -0.1025E-02
     -4.137 -0.4122E-01 -0.2855E-02
     -4.092 -0.9521E-01 -0.7082E-02
     -4.048 -0.1907E+00 -0.1555E-01
     -4.004 -0.3233E+00 -0.2990E-01
     -3.959 -0.4393E+00 -0.4941E-01
     -3.915 -0.4027E+00 -0.6728E-01
     -3.870  0.4478E-02 -0.6709E-01
     -3.826  0.1008E+01 -0.2234E-01
     -3.782  0.2689E+01  0.9705E-01
     -3.737  0.4831E+01  0.3116E+00
     -3.693  0.6895E+01  0.6177E+00
     -3.649  0.8202E+01  0.9818E+00
     -3.604  0.8267E+01  0.1349E+01
     -3.560  0.7065E+01  0.1662E+01
     -3.515  0.5046E+01  0.1886E+01
     -3.471  0.2883E+01  0.2014E+01
     -3.427  0.1142E+01  0.2065E+01
     -3.382  0.7265E-01  0.2068E+01
     -3.338 -0.3834E+00  0.2051E+01
     -3.293 -0.4454E+00  0.2032E+01
     -3.249 -0.3367E+00  0.2017E+01
     -3.205 -0.2023E+00  0.2008E+01
     -3.160 -0.1025E+00  0.2003E+01
     -3.116 -0.4496E-01  0.2001E+01
     -3.071 -0.1731E-01  0.2000E+01
     -3.027 -0.5897E-02  0.2000E+01
     -2.983 -0.1788E-02  0.2000E+01
     -2.938 -0.4841E-03  0.2000E+01
     -2.894 -0.1174E-03  0.2000E+01
     -2.849 -0.2554E-04  0.2000E+01
     -2.805 -0.4993E-05  0.2000E+01
     -2.761 -0.8785E-06  0.2000E+01
     -2.716 -0.1392E-06  0.2000E+01
     -2.672 -0.1988E-07  0.2000E+01
     -2.627 -0.2560E-08  0.2000E+01
     -2.583 -0.2976E-09  0.2000E+01
     -2.539 -0.3124E-10  0.2000E+01
     -2.494 -0.2961E-11  0.2000E+01
     -2.450 -0.2501E-12  0.2000E+01
     -2.405 -0.2001E-13  0.2000E+01
     -2.361  0.0000E+00  0.2000E+01
     -2.317  0.0000E+00  0.2000E+01
     -2.272  0.0000E+00  0.2000E+01
     -2.228  0.0000E+00  0.2000E+01
     -2.183  0.0000E+00  0.2000E+01
     -2.139  0.0000E+00  0.2000E+01
     -2.095  0.0000E+00  0.2000E+01
     -2.050  0.0000E+00  0.2000E+01
     -2.006  0.0000E+00  0.2000E+01
     -1.961  0.0000E+00  0.2000E+01
     -1.917  0.0000E+00  0.2000E+01
     -1.873  0.0000E+00  0.2000E+01
     -1.828  0.0000E+00  0.2000E+01
     -1.784  0.0000E+00  0.2000E+01
     -1.739  0.0000E+00  0.2000E+01
     -1.695  0.0000E+00  0.2000E+01
     -1.651  0.0000E+00  0.2000E+01
     -1.606  0.0000E+00  0.2000E+01
     -1.562 -0.1447E-26  0.2000E+01
     -1.517 -0.4853E-25  0.2000E+01
     -1.473 -0.1513E-23  0.2000E+01
     -1.429 -0.4268E-22  0.2000E+01
     -1.384 -0.1090E-20  0.2000E+01
     -1.340 -0.2518E-19  0.2000E+01
     -1.295 -0.5263E-18  0.2000E+01
     -1.251 -0.9955E-17  0.2000E+01
     -1.207 -0.1703E-15  0.2000E+01
     -1.162 -0.2635E-14  0.2000E+01
     -1.118 -0.3688E-13  0.2000E+01
     -1.074 -0.4516E-12  0.2000E+01
     -1.029 -0.5161E-11  0.2000E+01
     -0.985 -0.5318E-10  0.2000E+01
     -0.940 -0.4949E-09  0.2000E+01
     -0.896 -0.4158E-08  0.2000E+01
     -0.852 -0.3152E-07  0.2000E+01
     -0.807 -0.2154E-06  0.2000E+01
     -0.763 -0.1327E-05  0.2000E+01
     -0.718 -0.7362E-05  0.2000E+01
     -0.674 -0.3673E-04  0.2000E+01
     -0.630 -0.1647E-03  0.2000E+01
     -0.585 -0.6621E-03  0.2000E+01
     -0.541 -0.2383E-02  0.2000E+01
     -0.496 -0.7652E-02  0.2000E+01
     -0.452 -0.2184E-01  0.1999E+01
     -0.408 -0.5510E-01  0.1996E+01
     -0.363 -0.1217E+00  0.1991E+01
     -0.319 -0.2315E+00  0.1980E+01
     -0.274 -0.3680E+00  0.1964E+01
     -0.230 -0.4534E+00  0.1944E+01
     -0.186 -0.3217E+00  0.1930E+01
     -0.141  0.2602E+00  0.1941E+01
     -0.097  0.1490E+01  0.2007E+01
     -0.052  0.3364E+01  0.2157E+01
     -0.008  0.5552E+01  0.2403E+01
      0.036  0.7439E+01  0.2733E+01
      0.081  0.8372E+01  0.3105E+01
      0.125  0.7998E+01  0.3460E+01
      0.170  0.6459E+01  0.3747E+01
      0.214  0.4317E+01  0.3939E+01
      0.258  0.2244E+01  0.4038E+01
      0.303  0.7137E+00  0.4070E+01
      0.347 -0.1360E+00  0.4064E+01
      0.392 -0.4353E+00  0.4045E+01
      0.436 -0.4195E+00  0.4026E+01
      0.480 -0.2909E+00  0.4013E+01
      0.525 -0.1646E+00  0.4006E+01
      0.569 -0.7935E-01  0.4002E+01
      0.614 -0.3331E-01  0.4001E+01
      0.658 -0.1232E-01  0.4000E+01
      0.702 -0.4105E-02  0.4000E+01
      0.747 -0.1510E-02  0.4000E+01
      0.791 -0.1682E-02  0.4000E+01
      0.836 -0.5172E-02  0.4000E+01
      0.880 -0.1692E-01  0.3999E+01
      0.924 -0.4985E-01  0.3997E+01
      0.969 -0.1301E+00  0.3991E+01
      1.013 -0.2984E+00  0.3978E+01
      1.058 -0.5927E+00  0.3951E+01
      1.102 -0.9950E+00  0.3907E+01
      1.146 -0.1335E+01  0.3848E+01
      1.191 -0.1193E+01  0.3795E+01
      1.235  0.8255E-01  0.3799E+01
      1.280  0.3136E+01  0.3938E+01
      1.324  0.8144E+01  0.4299E+01
      1.368  0.1438E+02  0.4938E+01
      1.413  0.2022E+02  0.5836E+01
      1.457  0.2382E+02  0.6893E+01
      1.501  0.2412E+02  0.7964E+01
      1.546  0.2161E+02  0.8924E+01
      1.590  0.1808E+02  0.9726E+01
      1.635  0.1549E+02  0.1041E+02
      1.679  0.1475E+02  0.1107E+02
      1.723  0.1528E+02  0.1175E+02
      1.768  0.1561E+02  0.1244E+02
      1.812  0.1444E+02  0.1308E+02
      1.857  0.1151E+02  0.1359E+02
      1.901  0.7581E+01  0.1393E+02
      1.945  0.3808E+01  0.1410E+02
      1.990  0.1056E+01  0.1414E+02
      2.034 -0.4287E+00  0.1413E+02
      2.079 -0.9054E+00  0.1409E+02
      2.123 -0.8218E+00  0.1405E+02
      2.167 -0.5538E+00  0.1402E+02
      2.212 -0.3072E+00  0.1401E+02
      2.256 -0.1458E+00  0.1400E+02
      2.301 -0.6031E-01  0.1400E+02
      2.345 -0.2200E-01  0.1400E+02
      2.389 -0.7119E-02  0.1400E+02
      2.434 -0.2054E-02  0.1400E+02
      2.478 -0.5299E-03  0.1400E+02
      2.523 -0.1226E-03  0.1400E+02
      2.567 -0.2545E-04  0.1400E+02
      2.611 -0.4752E-05  0.1400E+02
      2.656 -0.7988E-06  0.1400E+02
      2.700 -0.1210E-06  0.1400E+02
      2.745 -0.1651E-07  0.1400E+02
      2.789 -0.2034E-08  0.1400E+02
      2.833 -0.2261E-09  0.1400E+02
      2.878 -0.2271E-10  0.1400E+02
      2.922 -0.2061E-11  0.1400E+02
      2.967 -0.1600E-12  0.1400E+02
      3.011 -0.2001E-13  0.1400E+02
      3.055 -0.4700E-20  0.1400E+02
      3.100 -0.1074E-18  0.1400E+02
      3.144 -0.2219E-17  0.1400E+02
      3.189 -0.4149E-16  0.1400E+02
      3.233 -0.7018E-15  0.1400E+02
      3.277 -0.1074E-13  0.1400E+02
      3.322 -0.1410E-12  0.1400E+02
      3.366 -0.1805E-11  0.1400E+02
      3.411 -0.2030E-10  0.1400E+02
      3.455 -0.2068E-09  0.1400E+02
      3.499 -0.1902E-08  0.1400E+02
      3.544 -0.1580E-07  0.1400E+02
      3.588 -0.1183E-06  0.1400E+02
      3.633 -0.7994E-06  0.1400E+02
      3.677 -0.4866E-05  0.1400E+02
      3.721 -0.2667E-04  0.1400E+02
      3.766 -0.1315E-03  0.1400E+02
      3.810 -0.5822E-03  0.1400E+02
      3.855 -0.2312E-02  0.1400E+02
      3.899 -0.8212E-02  0.1400E+02
      3.943 -0.2603E-01  0.1400E+02
      3.988 -0.7329E-01  0.1400E+02
      4.032 -0.1822E+00  0.1399E+02
      4.077 -0.3959E+00  0.1397E+02
      4.121 -0.7395E+00  0.1394E+02
      4.165 -0.1148E+01  0.1389E+02
      4.210 -0.1361E+01  0.1383E+02
      4.254 -0.8526E+00  0.1379E+02
      4.298  0.1081E+01  0.1384E+02
      4.343  0.4980E+01  0.1406E+02
      4.387  0.1071E+02  0.1453E+02
      4.432  0.1715E+02  0.1529E+02
      4.476  0.2236E+02  0.1629E+02
      4.520  0.2447E+02  0.1737E+02
      4.565  0.2271E+02  0.1838E+02
      4.609  0.1803E+02  0.1918E+02
      4.654  0.1264E+02  0.1974E+02
      4.698  0.8942E+01  0.2014E+02
      4.742  0.8278E+01  0.2051E+02
      4.787  0.1032E+02  0.2097E+02
      4.831  0.1340E+02  0.2156E+02
      4.876  0.1549E+02  0.2225E+02
      4.920  0.1526E+02  0.2293E+02
      4.964  0.1264E+02  0.2349E+02
      5.009  0.8607E+01  0.2387E+02
      5.053  0.4518E+01  0.2407E+02
      5.098  0.1362E+01  0.2413E+02
      5.142 -0.5649E+00  0.2410E+02
      5.186 -0.1530E+01  0.2404E+02
      5.231 -0.1978E+01  0.2395E+02
      5.275 -0.2140E+01  0.2385E+02
      5.320 -0.1799E+01  0.2377E+02
      5.364 -0.3017E+00  0.2376E+02
      5.408  0.3147E+01  0.2390E+02
      5.453  0.8942E+01  0.2430E+02
      5.497  0.1654E+02  0.2503E+02
      5.542  0.2428E+02  0.2611E+02
      5.586  0.2992E+02  0.2744E+02
      5.630  0.3158E+02  0.2884E+02
      5.675  0.2873E+02  0.3012E+02
      5.719  0.2243E+02  0.3111E+02
      5.764  0.1472E+02  0.3176E+02
      5.808  0.7693E+01  0.3211E+02
      5.852  0.2622E+01  0.3222E+02
      5.897 -0.2213E+00  0.3221E+02
      5.941 -0.1305E+01  0.3215E+02
      5.986 -0.1356E+01  0.3209E+02
      6.030 -0.9973E+00  0.3205E+02
      6.074 -0.6002E+00  0.3202E+02
      6.119 -0.3099E+00  0.3201E+02
      6.163 -0.1403E+00  0.3200E+02
      6.208 -0.5634E-01  0.3200E+02
      6.252 -0.2019E-01  0.3200E+02
      6.296 -0.6483E-02  0.3200E+02
      6.341 -0.1870E-02  0.3200E+02
      6.385 -0.4856E-03  0.3200E+02
      6.430 -0.1136E-03  0.3200E+02
      6.474 -0.2396E-04  0.3200E+02
      6.518 -0.4561E-05  0.3200E+02
      6.563 -0.7835E-06  0.3200E+02
      6.607 -0.1215E-06  0.3200E+02
      6.652 -0.1703E-07  0.3200E+02
      6.696 -0.2156E-08  0.3200E+02
      6.740 -0.2467E-09  0.3200E+02
      6.785 -0.2548E-10  0.3200E+02
      6.829 -0.2411E-11  0.3200E+02
      6.873 -0.1901E-12  0.3200E+02
      6.918 -0.2001E-13  0.3200E+02
      6.962  0.0000E+00  0.3200E+02
      7.007  0.0000E+00  0.3200E+02
      7.051  0.0000E+00  0.3200E+02
      7.095  0.0000E+00  0.3200E+02
      7.140  0.0000E+00  0.3200E+02
      7.184  0.0000E+00  0.3200E+02
      7.229  0.0000E+00  0.3200E+02
      7.273  0.0000E+00  0.3200E+02
      7.317  0.0000E+00  0.3200E+02
      7.362  0.0000E+00  0.3200E+02
      7.406  0.0000E+00  0.3200E+02
      7.451  0.0000E+00  0.3200E+02
      7.495  0.0000E+00  0.3200E+02
      7.539  0.0000E+00  0.3200E+02
      7.584  0.0000E+00  0.3200E+02
      7.628  0.0000E+00  0.3200E+02
      7.673  0.0000E+00  0.3200E+02
