<?xml version="1.0" encoding="ISO-8859-1"?>
<modeling>
 <generator>
  <i name="program" type="string">vasp </i>
  <i name="version" type="string">5.2.2  </i>
  <i name="subversion" type="string">15Apr09 complex  parallel </i>
  <i name="platform" type="string">LinuxIFC </i>
  <i name="date" type="string">2013 06 14 </i>
  <i name="time" type="string">22:46:59 </i>
 </generator>
 <incar>
  <i type="string" name="PREC">accurate</i>
  <i type="int" name="IBRION">    -1</i>
  <i type="int" name="NSW">     0</i>
  <i type="int" name="ISIF">     2</i>
  <i name="ENCUT">    267.90700000</i>
  <i type="int" name="ISMEAR">     1</i>
  <i name="SIGMA">      0.20000000</i>
  <i type="logical" name="LWAVE"> F  </i>
  <i type="logical" name="LCHARG"> F  </i>
  <i type="logical" name="LPEAD"> F  </i>
  <i type="logical" name="LCALCPOL"> F  </i>
  <i type="logical" name="LCALCEPS"> F  </i>
  <v name="EFIELD_PEAD">      0.00000000      0.00000000      0.00000000</v>
  <i type="logical" name="LEFG"> F  </i>
 </incar>
 <kpoints>
  <generation param="Gamma">
   <v type="int" name="divisions">       1        1        1 </v>
   <v name="usershift">      0.00000000       0.00000000       0.00000000 </v>
   <v name="genvec1">      1.00000000       0.00000000       0.00000000 </v>
   <v name="genvec2">      0.00000000       1.00000000       0.00000000 </v>
   <v name="genvec3">      0.00000000       0.00000000       1.00000000 </v>
   <v name="shift">      0.00000000       0.00000000       0.00000000 </v>
  </generation>
  <varray name="kpointlist" >
   <v>       0.00000000       0.00000000       0.00000000 </v>
  </varray>
  <varray name="weights" >
   <v>       1.00000000 </v>
  </varray>
 </kpoints>
 <parameters>
  <separator name="general" >
   <i type="string" name="SYSTEM">unknown system</i>
   <i type="logical" name="LCOMPAT"> F  </i>
  </separator>
  <separator name="electronic" >
   <i type="string" name="PREC">accura</i>
   <i name="ENMAX">    267.90700000</i>
   <i name="ENAUG">    511.36800000</i>
   <i name="EDIFF">      0.00010000</i>
   <i type="int" name="IALGO">    38</i>
   <i type="int" name="IWAVPR">    10</i>
   <i type="int" name="NBANDS">    16</i>
   <i name="NELECT">     24.00000000</i>
   <separator name="electronic smearing" >
    <i type="int" name="ISMEAR">     1</i>
    <i name="SIGMA">      0.20000000</i>
   </separator>
   <separator name="electronic projectors" >
    <i type="logical" name="LREAL"> F  </i>
    <v name="ROPT">      0.00000000</v>
    <i type="int" name="LMAXPAW">  -100</i>
    <i type="int" name="LMAXMIX">     2</i>
   </separator>
   <separator name="electronic startup" >
    <i type="int" name="ISTART">     0</i>
    <i type="int" name="ICHARG">     2</i>
    <i type="int" name="INIWAV">     1</i>
   </separator>
   <separator name="electronic spin" >
    <i type="int" name="ISPIN">     1</i>
    <i type="logical" name="LNONCOLLINEAR"> F  </i>
    <v name="MAGMOM">      1.00000000      1.00000000      1.00000000</v>
    <i name="NUPDOWN">     -1.00000000</i>
    <i type="logical" name="LSORBIT"> F  </i>
    <v name="SAXIS">      0.00000000      0.00000000      1.00000000</v>
    <i type="logical" name="LSPIRAL"> F  </i>
    <v name="QSPIRAL">      0.00000000      0.00000000      0.00000000</v>
    <i type="logical" name="LZEROZ"> F  </i>
   </separator>
   <separator name="electronic exchange-correlation" >
    <i type="logical" name="LASPH"> F  </i>
    <i type="logical" name="LMETAGGA"> F  </i>
   </separator>
   <separator name="electronic convergence" >
    <i type="int" name="NELM">    60</i>
    <i type="int" name="NELMDL">    -5</i>
    <i type="int" name="NELMIN">     2</i>
    <i name="ENINI">    267.90700000</i>
    <separator name="electronic convergence detail" >
     <i type="logical" name="LDIAG"> T  </i>
     <i name="WEIMIN">      0.00000000</i>
     <i name="EBREAK">      0.00000156</i>
     <i name="DEPER">      0.30000000</i>
     <i type="int" name="NRMM">     4</i>
     <i name="TIME">      0.40000000</i>
    </separator>
   </separator>
   <separator name="electronic mixer" >
    <i name="AMIX">      0.40000000</i>
    <i name="BMIX">      1.00000000</i>
    <i name="AMIN">      0.10000000</i>
    <i name="AMIX_MAG">      1.60000000</i>
    <i name="BMIX_MAG">      1.00000000</i>
    <separator name="electronic mixer details" >
     <i type="int" name="IMIX">     4</i>
     <i type="int" name="MAXMIX">   -45</i>
     <i name="WC">    100.00000000</i>
     <i type="int" name="INIMIX">     1</i>
     <i type="int" name="MIXPRE">     1</i>
     <i type="int" name="MREMOVE">     5</i>
    </separator>
   </separator>
   <separator name="electronic dipolcorrection" >
    <i type="logical" name="LDIPOL"> F  </i>
    <i type="logical" name="LMONO"> F  </i>
    <i type="int" name="IDIPOL">     0</i>
    <i name="EPSILON">      1.00000000</i>
    <v name="DIPOL">   -100.00000000   -100.00000000   -100.00000000</v>
    <i name="EFIELD">      0.00000000</i>
   </separator>
  </separator>
  <separator name="grids" >
   <i type="int" name="NGX">    20</i>
   <i type="int" name="NGY">    20</i>
   <i type="int" name="NGZ">    20</i>
   <i type="int" name="NGXF">    40</i>
   <i type="int" name="NGYF">    40</i>
   <i type="int" name="NGZF">    40</i>
   <i type="logical" name="ADDGRID"> F  </i>
  </separator>
  <separator name="ionic" >
   <i type="int" name="NSW">     0</i>
   <i type="int" name="IBRION">    -1</i>
   <i type="int" name="ISIF">     2</i>
   <i name="PSTRESS">      0.00000000</i>
   <i name="EDIFFG">      0.00100000</i>
   <i type="int" name="NFREE">     0</i>
   <i name="POTIM">      0.50000000</i>
   <i name="SMASS">     -3.00000000</i>
  </separator>
  <separator name="ionic md" >
   <i name="TEBEG">      0.00010000</i>
   <i name="TEEND">      0.00010000</i>
   <i type="int" name="NBLOCK">     1</i>
   <i type="int" name="KBLOCK">     1</i>
   <i type="int" name="NPACO">   256</i>
   <i name="APACO">     16.00000000</i>
  </separator>
  <separator name="symmetry" >
   <i type="int" name="ISYM">     2</i>
   <i name="SYMPREC">      0.00001000</i>
  </separator>
  <separator name="dos" >
   <i type="logical" name="LORBIT"> F  </i>
   <v name="RWIGS">     -1.00000000</v>
   <i type="int" name="NEDOS">   301</i>
   <i name="EMIN">     10.00000000</i>
   <i name="EMAX">    -10.00000000</i>
   <i name="EFERMI">      0.00000000</i>
  </separator>
  <separator name="writing" >
   <i type="int" name="NWRITE">     2</i>
   <i type="logical" name="LWAVE"> F  </i>
   <i type="logical" name="LCHARG"> F  </i>
   <i type="logical" name="LPARD"> F  </i>
   <i type="logical" name="LVTOT"> F  </i>
   <i type="logical" name="LELF"> F  </i>
   <i type="logical" name="LOPTICS"> F  </i>
   <v name="STM">      0.00000000      0.00000000      0.00000000      0.00000000      0.00000000</v>
  </separator>
  <separator name="performance" >
   <i type="int" name="NPAR">     1</i>
   <i type="int" name="NSIM">     4</i>
   <i type="int" name="NBLK">    32</i>
   <i type="logical" name="LPLANE"> T  </i>
   <i type="logical" name="LSCALAPACK"> F  </i>
   <i type="logical" name="LSCAAWARE"> F  </i>
   <i type="logical" name="LSCALU"> F  </i>
   <i type="logical" name="LASYNC"> F  </i>
  </separator>
  <separator name="miscellaneous" >
   <i type="int" name="IDIOT">     3</i>
   <i type="logical" name="LMUSIC"> F  </i>
   <v name="POMASS">     55.84700000</v>
   <i type="logical" name="LCORR"> T  </i>
  </separator>
  <i type="logical" name="LREAL_COMPAT"> F  </i>
  <i type="logical" name="GGA_COMPAT"> T  </i>
  <i type="logical" name="LBERRY"> F  </i>
  <i type="int" name="ICORELEVEL">     0</i>
  <i type="logical" name="LDAU"> F  </i>
  <i type="int" name="I_CONSTRAINED_M">     0</i>
  <separator name="electronic exchange-correlation" >
   <i type="string" name="GGA">--</i>
   <i type="int" name="VOSKOWN">     0</i>
   <i type="logical" name="LHFCALC"> F  </i>
   <i type="logical" name="LHFONE"> F  </i>
   <i type="logical" name="LRHFCALC"> F  </i>
   <i type="logical" name="LTHOMAS"> F  </i>
   <i type="logical" name="LMODELHF"> F  </i>
   <i name="ENCUTFOCK">      0.00000000</i>
   <i name="ENCUT4O">     -1.00000000</i>
   <i type="int" name="EXXOEP">     0</i>
   <i type="int" name="FOURORBIT">     0</i>
   <i name="AEXX">      0.00000000</i>
   <i name="HFALPHA">      0.00000000</i>
   <i name="ALDAX">      1.00000000</i>
   <i name="AGGAX">      1.00000000</i>
   <i name="ALDAC">      1.00000000</i>
   <i name="AGGAC">      1.00000000</i>
   <i type="int" name="NKREDX">     1</i>
   <i type="int" name="NKREDY">     1</i>
   <i type="int" name="NKREDZ">     1</i>
   <i type="logical" name="SHIFTRED"> F  </i>
   <i type="logical" name="ODDONLY"> F  </i>
   <i type="logical" name="EVENONLY"> F  </i>
   <i type="int" name="LMAXFOCK">     0</i>
   <i type="int" name="NMAXFOCKAE">     0</i>
   <i name="HFSCREEN">      0.00000000</i>
   <i name="HFSCREENC">      0.00000000</i>
  </separator>
  <separator name="model GW" >
   <i type="int" name="MODEL_GW">     0</i>
   <i name="MODEL_EPS0">      9.21543861</i>
   <i name="MODEL_ALPHA">      1.00000000</i>
  </separator>
  <separator name="linear response parameters" >
   <i type="logical" name="LEPSILON"> F  </i>
   <i type="logical" name="LRPA"> F  </i>
   <i type="logical" name="LNABLA"> F  </i>
   <i type="logical" name="LVEL"> F  </i>
   <i type="int" name="KINTER">     0</i>
   <i name="CSHIFT">      0.10000000</i>
   <i name="OMEGAMAX">     -1.00000000</i>
  </separator>
  <separator name="orbital magnetization" >
   <i type="logical" name="ORBITALMAG"> F  </i>
   <i type="logical" name="LMAGBLOCH"> F  </i>
   <i type="logical" name="LCHIMAG"> F  </i>
   <i type="logical" name="LGAUGE"> T  </i>
   <i type="int" name="MAGATOM">     0</i>
   <v name="MAGDIPOL">      0.00000000      0.00000000      0.00000000</v>
   <v name="AVECCONST">      0.00000000      0.00000000      0.00000000</v>
  </separator>
  <separator name="response functions" >
   <i type="logical" name="LRPA"> T  </i>
   <i type="logical" name="LTCTE"> F  </i>
   <i type="logical" name="LTETE"> F  </i>
   <i type="logical" name="L2ORDER"> F  </i>
   <i type="logical" name="LGWLF"> F  </i>
   <i name="ENCUTGW">    178.60466667</i>
   <i name="ENCUTGWSOFT">     -2.00000000</i>
   <i name="ENCUTLF">     -1.00000000</i>
   <i type="int" name="LMAXMP2">    -1</i>
   <i name="SCISSOR">      0.00000000</i>
   <i type="int" name="NOMEGA">     0</i>
   <i type="int" name="NOMEGAR">     0</i>
   <i type="int" name="NBANDSGW">    -1</i>
   <i type="int" name="NBANDSLF">    -1</i>
   <i type="int" name="NELM">     1</i>
   <i type="int" name="DIM">     3</i>
   <i type="int" name="ANTIRES">     0</i>
   <i type="logical" name="LUSEW"> F  </i>
   <i name="OMEGAMAX">    -30.00000000</i>
   <i name="OMEGATL">   -200.00000000</i>
   <i type="int" name="OMEGAGRID">     0</i>
   <i name="CSHIFT">     -0.10000000</i>
   <i type="logical" name="SELFENERGY"> F  </i>
   <i type="logical" name="LSPECTRAL"> F  </i>
   <i type="logical" name="ODDONLYGW"> F  </i>
   <i type="logical" name="EVENONLYGW"> F  </i>
   <i type="int" name="NKREDLFX">     1</i>
   <i type="int" name="NKREDLFY">     1</i>
   <i type="int" name="NKREDLFZ">     1</i>
   <i type="int" name="MAXMEM">  1024</i>
   <i type="int" name="TELESCOPE">     0</i>
  </separator>
 </parameters>
 <atominfo>
  <atoms>       3 </atoms>
  <types>       1 </types>
  <array name="atoms" >
   <dimension dim="1">ion</dimension>
   <field type="string">element</field>
   <field type="int">atomtype</field>
   <set>
    <rc><c>Fe</c><c>   1</c></rc>
    <rc><c>Fe</c><c>   1</c></rc>
    <rc><c>Fe</c><c>   1</c></rc>
   </set>
  </array>
  <array name="atomtypes" >
   <dimension dim="1">type</dimension>
   <field type="int">atomspertype</field>
   <field type="string">element</field>
   <field>mass</field>
   <field>valence</field>
   <field type="string">pseudopotential</field>
   <set>
    <rc><c>   3</c><c>Fe</c><c>     55.84700000</c><c>      8.00000000</c><c> PAW_GGA Fe 03Mar1998                   </c></rc>
   </set>
  </array>
 </atominfo>
 <structure name="initialpos" >
  <crystal>
   <varray name="basis" >
    <v>       3.58505100       0.00000000       0.00000000 </v>
    <v>       0.00000000       3.58505100       0.00000000 </v>
    <v>       0.00000000       0.00000000       3.58505100 </v>
   </varray>
   <i name="volume">     46.07719304 </i>
   <varray name="rec_basis" >
    <v>       0.27893606       0.00000000       0.00000000 </v>
    <v>       0.00000000       0.27893606       0.00000000 </v>
    <v>       0.00000000       0.00000000       0.27893606 </v>
   </varray>
  </crystal>
  <varray name="positions" >
   <v>       0.00000000       0.00000000       0.00000000 </v>
   <v>       0.50000000       0.00000000       0.50000000 </v>
   <v>       0.50000000       0.50000000       0.00000000 </v>
  </varray>
 </structure>
 <calculation>
  <scstep>
   <time name="dav">    0.58    0.15</time>
   <time name="total">    1.08    0.48</time>
   <energy>
    <i name="alphaZ">    134.15010455 </i>
    <i name="ewald">  -1543.28455601 </i>
    <i name="hartreedc">   -459.34008320 </i>
    <i name="XCdc">      9.08926967 </i>
    <i name="pawpsdc">   1438.89509626 </i>
    <i name="pawaedc">  -1462.21758594 </i>
    <i name="eentropy">      0.02960279 </i>
    <i name="bandstr">    210.27873343 </i>
    <i name="atom">   1786.58306412 </i>
    <i name="e_fr_energy">    114.18364567 </i>
    <i name="e_wo_entrp">    114.15404288 </i>
    <i name="e_0_energy">    114.17377807 </i>
   </energy>
  </scstep>
  <scstep>
   <time name="dav">    0.61    0.15</time>
   <time name="total">    0.62    0.16</time>
   <energy>
    <i name="e_fr_energy">    -16.53867089 </i>
    <i name="e_wo_entrp">    -16.56460672 </i>
    <i name="e_0_energy">    -16.54731617 </i>
   </energy>
  </scstep>
  <scstep>
   <time name="dav">    0.94    0.23</time>
   <time name="total">    0.95    0.24</time>
   <energy>
    <i name="e_fr_energy">    -24.55997830 </i>
    <i name="e_wo_entrp">    -24.58403830 </i>
    <i name="e_0_energy">    -24.56799830 </i>
   </energy>
  </scstep>
  <scstep>
   <time name="dav">    0.72    0.18</time>
   <time name="total">    0.73    0.18</time>
   <energy>
    <i name="e_fr_energy">    -24.65675680 </i>
    <i name="e_wo_entrp">    -24.68076652 </i>
    <i name="e_0_energy">    -24.66476004 </i>
   </energy>
  </scstep>
  <scstep>
   <time name="dav">    0.83    0.21</time>
   <time name="total">    1.11    0.28</time>
   <energy>
    <i name="e_fr_energy">    -24.65944111 </i>
    <i name="e_wo_entrp">    -24.68345074 </i>
    <i name="e_0_energy">    -24.66744432 </i>
   </energy>
  </scstep>
  <scstep>
   <time name="dav">    0.49    0.15</time>
   <time name="total">    0.84    0.39</time>
   <energy>
    <i name="e_fr_energy">    -23.77286464 </i>
    <i name="e_wo_entrp">    -23.82573643 </i>
    <i name="e_0_energy">    -23.79048857 </i>
   </energy>
  </scstep>
  <scstep>
   <time name="dav">    0.39    0.11</time>
   <time name="total">    0.69    0.31</time>
   <energy>
    <i name="e_fr_energy">    -23.87929755 </i>
    <i name="e_wo_entrp">    -23.91070574 </i>
    <i name="e_0_energy">    -23.88976695 </i>
   </energy>
  </scstep>
  <scstep>
   <time name="dav">    0.45    0.13</time>
   <time name="total">    0.79    0.33</time>
   <energy>
    <i name="e_fr_energy">    -23.96541800 </i>
    <i name="e_wo_entrp">    -23.99168390 </i>
    <i name="e_0_energy">    -23.97417330 </i>
   </energy>
  </scstep>
  <scstep>
   <time name="dav">    0.27    0.07</time>
   <time name="total">    0.67    0.30</time>
   <energy>
    <i name="e_fr_energy">    -23.96555780 </i>
    <i name="e_wo_entrp">    -23.99185671 </i>
    <i name="e_0_energy">    -23.97432411 </i>
   </energy>
  </scstep>
  <scstep>
   <time name="dav">    0.21    0.06</time>
   <time name="total">    0.49    0.24</time>
   <energy>
    <i name="alphaZ">    134.15010455 </i>
    <i name="ewald">  -1543.28455601 </i>
    <i name="hartreedc">   -444.25893839 </i>
    <i name="XCdc">      8.68865175 </i>
    <i name="pawpsdc">   1559.82905600 </i>
    <i name="pawaedc">  -1580.76255569 </i>
    <i name="eentropy">      0.02626510 </i>
    <i name="bandstr">     55.06328011 </i>
    <i name="atom">   1786.58306412 </i>
    <i name="e_fr_energy">    -23.96562846 </i>
    <i name="e_wo_entrp">    -23.99189356 </i>
    <i name="e_0_energy">    -23.97438349 </i>
   </energy>
  </scstep>
  <structure>
   <crystal>
    <varray name="basis" >
     <v>       3.58505100       0.00000000       0.00000000 </v>
     <v>       0.00000000       3.58505100       0.00000000 </v>
     <v>       0.00000000       0.00000000       3.58505100 </v>
    </varray>
    <i name="volume">     46.07719304 </i>
    <varray name="rec_basis" >
     <v>       0.27893606       0.00000000       0.00000000 </v>
     <v>       0.00000000       0.27893606       0.00000000 </v>
     <v>       0.00000000       0.00000000       0.27893606 </v>
    </varray>
   </crystal>
   <varray name="positions" >
    <v>       0.00000000       0.00000000       0.00000000 </v>
    <v>       0.50000000       0.00000000       0.50000000 </v>
    <v>       0.50000000       0.50000000       0.00000000 </v>
   </varray>
  </structure>
  <varray name="forces" >
   <v>       0.00000000       0.00000000       0.00000000 </v>
   <v>       0.00000000       0.00000000       0.00000000 </v>
   <v>       0.00000000       0.00000000       0.00000000 </v>
  </varray>
  <varray name="stress" >
   <v>    -407.07898863       0.00000000       0.00000000 </v>
   <v>       0.00000000    -407.07898863       0.00000000 </v>
   <v>       0.00000000       0.00000000    -407.07898863 </v>
  </varray>
  <energy>
   <i name="e_fr_energy">    -23.96562846 </i>
   <i name="e_wo_entrp">    -23.97438349 </i>
   <i name="e_0_energy">      0.02626510 </i>
  </energy>
  <time name="totalsc">    9.02    3.59</time>
  <eigenvalues>
   <array>
    <dimension dim="1">band</dimension>
    <dimension dim="2">kpoint</dimension>
    <dimension dim="3">spin</dimension>
    <field>eigene</field>
    <field>occ</field>
    <set>
     <set comment="spin 1">
      <set comment="kpoint 1">
       <r>   -3.6464    1.0000 </r>
       <r>    0.0684    1.0000 </r>
       <r>    1.4567    1.0000 </r>
       <r>    1.4567    1.0000 </r>
       <r>    1.4567    1.0000 </r>
       <r>    1.7507    1.0000 </r>
       <r>    1.7507    1.0000 </r>
       <r>    4.5030    1.0006 </r>
       <r>    4.5030    1.0006 </r>
       <r>    4.5030    1.0006 </r>
       <r>    4.8653    0.9997 </r>
       <r>    4.8653    0.9997 </r>
       <r>    5.5820   -0.0004 </r>
       <r>    5.5820   -0.0004 </r>
       <r>    5.5820   -0.0004 </r>
       <r>    5.6726    0.0000 </r>
      </set>
     </set>
    </set>
   </array>
  </eigenvalues>
  <separator name="orbital magnetization" >
   <v name="MAGDIPOLOUT">      0.00000000      0.00000000      0.00000000</v>
  </separator>
  <dos>
   <i name="efermi">      5.03338787 </i>
   <total>
    <array>
     <dimension dim="1">gridpoints</dimension>
     <dimension dim="2">spin</dimension>
     <field>energy</field>
     <field>total</field>
     <field>integrated</field>
     <set>
      <set comment="spin 1">
       <r>  -5.6464   0.0000   0.0000 </r>
       <r>  -5.6020   0.0000   0.0000 </r>
       <r>  -5.5576   0.0000   0.0000 </r>
       <r>  -5.5132   0.0000   0.0000 </r>
       <r>  -5.4688   0.0000   0.0000 </r>
       <r>  -5.4244   0.0000   0.0000 </r>
       <r>  -5.3800   0.0000   0.0000 </r>
       <r>  -5.3356   0.0000   0.0000 </r>
       <r>  -5.2912   0.0000   0.0000 </r>
       <r>  -5.2468   0.0000   0.0000 </r>
       <r>  -5.2024   0.0000   0.0000 </r>
       <r>  -5.1580   0.0000   0.0000 </r>
       <r>  -5.1136   0.0000   0.0000 </r>
       <r>  -5.0692   0.0000   0.0000 </r>
       <r>  -5.0248   0.0000   0.0000 </r>
       <r>  -4.9804   0.0000   0.0000 </r>
       <r>  -4.9360   0.0000   0.0000 </r>
       <r>  -4.8916   0.0000   0.0000 </r>
       <r>  -4.8472   0.0000   0.0000 </r>
       <r>  -4.8028   0.0000   0.0000 </r>
       <r>  -4.7584   0.0000   0.0000 </r>
       <r>  -4.7140   0.0000   0.0000 </r>
       <r>  -4.6696   0.0000   0.0000 </r>
       <r>  -4.6252   0.0000   0.0000 </r>
       <r>  -4.5808   0.0000   0.0000 </r>
       <r>  -4.5364   0.0000   0.0000 </r>
       <r>  -4.4920   0.0000   0.0000 </r>
       <r>  -4.4477   0.0000   0.0000 </r>
       <r>  -4.4033   0.0000   0.0000 </r>
       <r>  -4.3589  -0.0001   0.0000 </r>
       <r>  -4.3145  -0.0004   0.0000 </r>
       <r>  -4.2701  -0.0016  -0.0001 </r>
       <r>  -4.2257  -0.0053  -0.0003 </r>
       <r>  -4.1813  -0.0157  -0.0010 </r>
       <r>  -4.1369  -0.0412  -0.0029 </r>
       <r>  -4.0925  -0.0952  -0.0071 </r>
       <r>  -4.0481  -0.1907  -0.0155 </r>
       <r>  -4.0037  -0.3233  -0.0299 </r>
       <r>  -3.9593  -0.4393  -0.0494 </r>
       <r>  -3.9149  -0.4027  -0.0673 </r>
       <r>  -3.8705   0.0045  -0.0671 </r>
       <r>  -3.8261   1.0079  -0.0223 </r>
       <r>  -3.7817   2.6891   0.0970 </r>
       <r>  -3.7373   4.8315   0.3116 </r>
       <r>  -3.6929   6.8950   0.6177 </r>
       <r>  -3.6485   8.2018   0.9818 </r>
       <r>  -3.6041   8.2669   1.3488 </r>
       <r>  -3.5597   7.0651   1.6625 </r>
       <r>  -3.5153   5.0456   1.8865 </r>
       <r>  -3.4709   2.8829   2.0145 </r>
       <r>  -3.4265   1.1420   2.0652 </r>
       <r>  -3.3821   0.0726   2.0684 </r>
       <r>  -3.3377  -0.3834   2.0514 </r>
       <r>  -3.2933  -0.4454   2.0316 </r>
       <r>  -3.2489  -0.3367   2.0167 </r>
       <r>  -3.2045  -0.2023   2.0077 </r>
       <r>  -3.1601  -0.1025   2.0031 </r>
       <r>  -3.1158  -0.0450   2.0011 </r>
       <r>  -3.0714  -0.0173   2.0004 </r>
       <r>  -3.0270  -0.0059   2.0001 </r>
       <r>  -2.9826  -0.0018   2.0000 </r>
       <r>  -2.9382  -0.0005   2.0000 </r>
       <r>  -2.8938  -0.0001   2.0000 </r>
       <r>  -2.8494   0.0000   2.0000 </r>
       <r>  -2.8050   0.0000   2.0000 </r>
       <r>  -2.7606   0.0000   2.0000 </r>
       <r>  -2.7162   0.0000   2.0000 </r>
       <r>  -2.6718   0.0000   2.0000 </r>
       <r>  -2.6274   0.0000   2.0000 </r>
       <r>  -2.5830   0.0000   2.0000 </r>
       <r>  -2.5386   0.0000   2.0000 </r>
       <r>  -2.4942   0.0000   2.0000 </r>
       <r>  -2.4498   0.0000   2.0000 </r>
       <r>  -2.4054   0.0000   2.0000 </r>
       <r>  -2.3610   0.0000   2.0000 </r>
       <r>  -2.3166   0.0000   2.0000 </r>
       <r>  -2.2722   0.0000   2.0000 </r>
       <r>  -2.2278   0.0000   2.0000 </r>
       <r>  -2.1834   0.0000   2.0000 </r>
       <r>  -2.1390   0.0000   2.0000 </r>
       <r>  -2.0946   0.0000   2.0000 </r>
       <r>  -2.0502   0.0000   2.0000 </r>
       <r>  -2.0058   0.0000   2.0000 </r>
       <r>  -1.9614   0.0000   2.0000 </r>
       <r>  -1.9170   0.0000   2.0000 </r>
       <r>  -1.8726   0.0000   2.0000 </r>
       <r>  -1.8282   0.0000   2.0000 </r>
       <r>  -1.7839   0.0000   2.0000 </r>
       <r>  -1.7395   0.0000   2.0000 </r>
       <r>  -1.6951   0.0000   2.0000 </r>
       <r>  -1.6507   0.0000   2.0000 </r>
       <r>  -1.6063   0.0000   2.0000 </r>
       <r>  -1.5619   0.0000   2.0000 </r>
       <r>  -1.5175   0.0000   2.0000 </r>
       <r>  -1.4731   0.0000   2.0000 </r>
       <r>  -1.4287   0.0000   2.0000 </r>
       <r>  -1.3843   0.0000   2.0000 </r>
       <r>  -1.3399   0.0000   2.0000 </r>
       <r>  -1.2955   0.0000   2.0000 </r>
       <r>  -1.2511   0.0000   2.0000 </r>
       <r>  -1.2067   0.0000   2.0000 </r>
       <r>  -1.1623   0.0000   2.0000 </r>
       <r>  -1.1179   0.0000   2.0000 </r>
       <r>  -1.0735   0.0000   2.0000 </r>
       <r>  -1.0291   0.0000   2.0000 </r>
       <r>  -0.9847   0.0000   2.0000 </r>
       <r>  -0.9403   0.0000   2.0000 </r>
       <r>  -0.8959   0.0000   2.0000 </r>
       <r>  -0.8515   0.0000   2.0000 </r>
       <r>  -0.8071   0.0000   2.0000 </r>
       <r>  -0.7627   0.0000   2.0000 </r>
       <r>  -0.7183   0.0000   2.0000 </r>
       <r>  -0.6739   0.0000   2.0000 </r>
       <r>  -0.6295  -0.0002   2.0000 </r>
       <r>  -0.5851  -0.0007   2.0000 </r>
       <r>  -0.5407  -0.0024   1.9999 </r>
       <r>  -0.4964  -0.0077   1.9995 </r>
       <r>  -0.4520  -0.0218   1.9985 </r>
       <r>  -0.4076  -0.0551   1.9961 </r>
       <r>  -0.3632  -0.1217   1.9907 </r>
       <r>  -0.3188  -0.2315   1.9804 </r>
       <r>  -0.2744  -0.3680   1.9641 </r>
       <r>  -0.2300  -0.4534   1.9440 </r>
       <r>  -0.1856  -0.3217   1.9297 </r>
       <r>  -0.1412   0.2602   1.9412 </r>
       <r>  -0.0968   1.4896   2.0074 </r>
       <r>  -0.0524   3.3636   2.1567 </r>
       <r>  -0.0080   5.5523   2.4032 </r>
       <r>   0.0364   7.4394   2.7335 </r>
       <r>   0.0808   8.3724   3.1052 </r>
       <r>   0.1252   7.9976   3.4602 </r>
       <r>   0.1696   6.4593   3.7470 </r>
       <r>   0.2140   4.3172   3.9387 </r>
       <r>   0.2584   2.2442   4.0383 </r>
       <r>   0.3028   0.7137   4.0700 </r>
       <r>   0.3472  -0.1360   4.0640 </r>
       <r>   0.3916  -0.4353   4.0446 </r>
       <r>   0.4360  -0.4195   4.0260 </r>
       <r>   0.4804  -0.2909   4.0131 </r>
       <r>   0.5248  -0.1646   4.0058 </r>
       <r>   0.5692  -0.0794   4.0023 </r>
       <r>   0.6136  -0.0333   4.0008 </r>
       <r>   0.6580  -0.0123   4.0002 </r>
       <r>   0.7024  -0.0041   4.0001 </r>
       <r>   0.7468  -0.0015   4.0000 </r>
       <r>   0.7912  -0.0017   3.9999 </r>
       <r>   0.8355  -0.0052   3.9997 </r>
       <r>   0.8799  -0.0169   3.9989 </r>
       <r>   0.9243  -0.0498   3.9967 </r>
       <r>   0.9687  -0.1301   3.9910 </r>
       <r>   1.0131  -0.2984   3.9777 </r>
       <r>   1.0575  -0.5927   3.9514 </r>
       <r>   1.1019  -0.9950   3.9072 </r>
       <r>   1.1463  -1.3345   3.8480 </r>
       <r>   1.1907  -1.1928   3.7950 </r>
       <r>   1.2351   0.0825   3.7987 </r>
       <r>   1.2795   3.1361   3.9379 </r>
       <r>   1.3239   8.1436   4.2995 </r>
       <r>   1.3683  14.3800   4.9379 </r>
       <r>   1.4127  20.2231   5.8357 </r>
       <r>   1.4571  23.8172   6.8931 </r>
       <r>   1.5015  24.1195   7.9639 </r>
       <r>   1.5459  21.6142   8.9235 </r>
       <r>   1.5903  18.0818   9.7263 </r>
       <r>   1.6347  15.4854  10.4138 </r>
       <r>   1.6791  14.7452  11.0685 </r>
       <r>   1.7235  15.2822  11.7469 </r>
       <r>   1.7679  15.6074  12.4398 </r>
       <r>   1.8123  14.4394  13.0809 </r>
       <r>   1.8567  11.5115  13.5920 </r>
       <r>   1.9011   7.5812  13.9286 </r>
       <r>   1.9455   3.8080  14.0976 </r>
       <r>   1.9899   1.0560  14.1445 </r>
       <r>   2.0343  -0.4287  14.1255 </r>
       <r>   2.0787  -0.9054  14.0853 </r>
       <r>   2.1231  -0.8218  14.0488 </r>
       <r>   2.1674  -0.5538  14.0242 </r>
       <r>   2.2118  -0.3072  14.0106 </r>
       <r>   2.2562  -0.1458  14.0041 </r>
       <r>   2.3006  -0.0603  14.0014 </r>
       <r>   2.3450  -0.0220  14.0004 </r>
       <r>   2.3894  -0.0071  14.0001 </r>
       <r>   2.4338  -0.0021  14.0000 </r>
       <r>   2.4782  -0.0005  14.0000 </r>
       <r>   2.5226  -0.0001  14.0000 </r>
       <r>   2.5670   0.0000  14.0000 </r>
       <r>   2.6114   0.0000  14.0000 </r>
       <r>   2.6558   0.0000  14.0000 </r>
       <r>   2.7002   0.0000  14.0000 </r>
       <r>   2.7446   0.0000  14.0000 </r>
       <r>   2.7890   0.0000  14.0000 </r>
       <r>   2.8334   0.0000  14.0000 </r>
       <r>   2.8778   0.0000  14.0000 </r>
       <r>   2.9222   0.0000  14.0000 </r>
       <r>   2.9666   0.0000  14.0000 </r>
       <r>   3.0110   0.0000  14.0000 </r>
       <r>   3.0554   0.0000  14.0000 </r>
       <r>   3.0998   0.0000  14.0000 </r>
       <r>   3.1442   0.0000  14.0000 </r>
       <r>   3.1886   0.0000  14.0000 </r>
       <r>   3.2330   0.0000  14.0000 </r>
       <r>   3.2774   0.0000  14.0000 </r>
       <r>   3.3218   0.0000  14.0000 </r>
       <r>   3.3662   0.0000  14.0000 </r>
       <r>   3.4106   0.0000  14.0000 </r>
       <r>   3.4550   0.0000  14.0000 </r>
       <r>   3.4993   0.0000  14.0000 </r>
       <r>   3.5437   0.0000  14.0000 </r>
       <r>   3.5881   0.0000  14.0000 </r>
       <r>   3.6325   0.0000  14.0000 </r>
       <r>   3.6769   0.0000  14.0000 </r>
       <r>   3.7213   0.0000  14.0000 </r>
       <r>   3.7657  -0.0001  14.0000 </r>
       <r>   3.8101  -0.0006  14.0000 </r>
       <r>   3.8545  -0.0023  13.9999 </r>
       <r>   3.8989  -0.0082  13.9995 </r>
       <r>   3.9433  -0.0260  13.9983 </r>
       <r>   3.9877  -0.0733  13.9951 </r>
       <r>   4.0321  -0.1822  13.9870 </r>
       <r>   4.0765  -0.3959  13.9694 </r>
       <r>   4.1209  -0.7395  13.9366 </r>
       <r>   4.1653  -1.1482  13.8856 </r>
       <r>   4.2097  -1.3613  13.8252 </r>
       <r>   4.2541  -0.8526  13.7873 </r>
       <r>   4.2985   1.0812  13.8353 </r>
       <r>   4.3429   4.9796  14.0564 </r>
       <r>   4.3873  10.7148  14.5321 </r>
       <r>   4.4317  17.1523  15.2936 </r>
       <r>   4.4761  22.3623  16.2864 </r>
       <r>   4.5205  24.4693  17.3728 </r>
       <r>   4.5649  22.7146  18.3812 </r>
       <r>   4.6093  18.0255  19.1815 </r>
       <r>   4.6537  12.6361  19.7425 </r>
       <r>   4.6981   8.9422  20.1395 </r>
       <r>   4.7425   8.2781  20.5070 </r>
       <r>   4.7869  10.3198  20.9652 </r>
       <r>   4.8312  13.4001  21.5601 </r>
       <r>   4.8756  15.4907  22.2478 </r>
       <r>   4.9200  15.2619  22.9254 </r>
       <r>   4.9644  12.6377  23.4865 </r>
       <r>   5.0088   8.6067  23.8686 </r>
       <r>   5.0532   4.5184  24.0692 </r>
       <r>   5.0976   1.3621  24.1297 </r>
       <r>   5.1420  -0.5649  24.1046 </r>
       <r>   5.1864  -1.5300  24.0367 </r>
       <r>   5.2308  -1.9781  23.9488 </r>
       <r>   5.2752  -2.1399  23.8538 </r>
       <r>   5.3196  -1.7990  23.7740 </r>
       <r>   5.3640  -0.3017  23.7606 </r>
       <r>   5.4084   3.1466  23.9003 </r>
       <r>   5.4528   8.9420  24.2973 </r>
       <r>   5.4972  16.5374  25.0315 </r>
       <r>   5.5416  24.2816  26.1095 </r>
       <r>   5.5860  29.9162  27.4377 </r>
       <r>   5.6304  31.5783  28.8396 </r>
       <r>   5.6748  28.7324  30.1153 </r>
       <r>   5.7192  22.4276  31.1110 </r>
       <r>   5.7636  14.7236  31.7647 </r>
       <r>   5.8080   7.6933  32.1062 </r>
       <r>   5.8524   2.6223  32.2226 </r>
       <r>   5.8968  -0.2213  32.2128 </r>
       <r>   5.9412  -1.3045  32.1549 </r>
       <r>   5.9856  -1.3557  32.0947 </r>
       <r>   6.0300  -0.9973  32.0504 </r>
       <r>   6.0744  -0.6002  32.0238 </r>
       <r>   6.1188  -0.3099  32.0100 </r>
       <r>   6.1631  -0.1403  32.0038 </r>
       <r>   6.2075  -0.0563  32.0013 </r>
       <r>   6.2519  -0.0202  32.0004 </r>
       <r>   6.2963  -0.0065  32.0001 </r>
       <r>   6.3407  -0.0019  32.0000 </r>
       <r>   6.3851  -0.0005  32.0000 </r>
       <r>   6.4295  -0.0001  32.0000 </r>
       <r>   6.4739   0.0000  32.0000 </r>
       <r>   6.5183   0.0000  32.0000 </r>
       <r>   6.5627   0.0000  32.0000 </r>
       <r>   6.6071   0.0000  32.0000 </r>
       <r>   6.6515   0.0000  32.0000 </r>
       <r>   6.6959   0.0000  32.0000 </r>
       <r>   6.7403   0.0000  32.0000 </r>
       <r>   6.7847   0.0000  32.0000 </r>
       <r>   6.8291   0.0000  32.0000 </r>
       <r>   6.8735   0.0000  32.0000 </r>
       <r>   6.9179   0.0000  32.0000 </r>
       <r>   6.9623   0.0000  32.0000 </r>
       <r>   7.0067   0.0000  32.0000 </r>
       <r>   7.0511   0.0000  32.0000 </r>
       <r>   7.0955   0.0000  32.0000 </r>
       <r>   7.1399   0.0000  32.0000 </r>
       <r>   7.1843   0.0000  32.0000 </r>
       <r>   7.2287   0.0000  32.0000 </r>
       <r>   7.2731   0.0000  32.0000 </r>
       <r>   7.3175   0.0000  32.0000 </r>
       <r>   7.3619   0.0000  32.0000 </r>
       <r>   7.4063   0.0000  32.0000 </r>
       <r>   7.4506   0.0000  32.0000 </r>
       <r>   7.4950   0.0000  32.0000 </r>
       <r>   7.5394   0.0000  32.0000 </r>
       <r>   7.5838   0.0000  32.0000 </r>
       <r>   7.6282   0.0000  32.0000 </r>
       <r>   7.6726   0.0000  32.0000 </r>
      </set>
     </set>
    </array>
   </total>
  </dos>
 </calculation>
 <structure name="finalpos" >
  <crystal>
   <varray name="basis" >
    <v>       3.58505100       0.00000000       0.00000000 </v>
    <v>       0.00000000       3.58505100       0.00000000 </v>
    <v>       0.00000000       0.00000000       3.58505100 </v>
   </varray>
   <i name="volume">     46.07719304 </i>
   <varray name="rec_basis" >
    <v>       0.27893606       0.00000000       0.00000000 </v>
    <v>       0.00000000       0.27893606       0.00000000 </v>
    <v>       0.00000000       0.00000000       0.27893606 </v>
   </varray>
  </crystal>
  <varray name="positions" >
   <v>       0.00000000       0.00000000       0.00000000 </v>
   <v>       0.50000000       0.00000000       0.50000000 </v>
   <v>       0.50000000       0.50000000       0.00000000 </v>
  </varray>
 </structure>
</modeling>
