       N       E                     dE             d eps       ncg     rms          rms(c)
RMM:   1     0.299136160945E+03    0.29914E+03   -0.17355E+04    72   0.582E+02
RMM:   2     0.126717100228E+01   -0.29787E+03   -0.29090E+03    72   0.121E+02
RMM:   3    -0.544952309103E+02   -0.55762E+02   -0.57237E+02    72   0.392E+01
RMM:   4    -0.733909116896E+02   -0.18896E+02   -0.14440E+02    72   0.221E+01
RMM:   5    -0.808905895191E+02   -0.74997E+01   -0.54454E+01    72   0.122E+01
RMM:   6    -0.840977997236E+02   -0.32072E+01   -0.24052E+01    72   0.745E+00
RMM:   7    -0.853232469989E+02   -0.12254E+01   -0.10414E+01    72   0.457E+00
RMM:   8    -0.858495545616E+02   -0.52631E+00   -0.47227E+00    72   0.284E+00
RMM:   9    -0.862618330962E+02   -0.41228E+00   -0.38383E+00   154   0.188E+00
RMM:  10    -0.863346305654E+02   -0.72797E-01   -0.58469E-01   141   0.437E-01
RMM:  11    -0.863391448885E+02   -0.45143E-02   -0.24086E-02   139   0.941E-02
RMM:  12    -0.863392648777E+02   -0.11999E-03   -0.71102E-04   112   0.220E-02    0.776E+00
RMM:  13    -0.839575566710E+02    0.23817E+01   -0.83672E+00   144   0.366E+00    0.438E+00
RMM:  14    -0.833991185435E+02    0.55844E+00   -0.51754E-01   144   0.117E+00    0.295E+00
RMM:  15    -0.831146235990E+02    0.28449E+00   -0.14100E-01   144   0.887E-01    0.719E-01
RMM:  16    -0.830931534644E+02    0.21470E-01   -0.27162E-02   145   0.308E-01    0.123E-01
RMM:  17    -0.830925220625E+02    0.63140E-03   -0.31012E-03   148   0.890E-02    0.656E-02
RMM:  18    -0.830924532015E+02    0.68861E-04   -0.50837E-04   117   0.383E-02
   1 F= -.83092453E+02 E0= -.83046191E+02  d E =-.830925E+02
       N       E                     dE             d eps       ncg     rms          rms(c)
RMM:   1    -0.100053392653E+03   -0.16961E+02   -0.16678E+02   144   0.265E+01    0.586E+00
RMM:   2    -0.975272583045E+02    0.25261E+01   -0.11337E+01   144   0.576E+00    0.396E+00
RMM:   3    -0.962604802522E+02    0.12668E+01   -0.19099E+00   145   0.206E+00    0.215E+00
RMM:   4    -0.960358457155E+02    0.22463E+00   -0.14832E+00   145   0.178E+00    0.739E-01
RMM:   5    -0.960202441959E+02    0.15602E-01   -0.83447E-02   153   0.446E-01    0.450E-01
RMM:   6    -0.960176487585E+02    0.25954E-02   -0.36142E-02   148   0.286E-01    0.201E-01
RMM:   7    -0.960158616786E+02    0.17871E-02   -0.42951E-03   150   0.107E-01    0.627E-02
RMM:   8    -0.960158079188E+02    0.53760E-04   -0.18577E-03   140   0.572E-02    0.309E-02
RMM:   9    -0.960157307455E+02    0.77173E-04   -0.16320E-04   102   0.215E-02
   2 F= -.96015731E+02 E0= -.95988342E+02  d E =-.129233E+02
       N       E                     dE             d eps       ncg     rms          rms(c)
RMM:   1    -0.982000771923E+02   -0.21843E+01   -0.26460E+01   144   0.129E+01    0.211E+00
RMM:   2    -0.978231871868E+02    0.37689E+00   -0.91478E-01   144   0.194E+00    0.836E-01
RMM:   3    -0.977835785811E+02    0.39609E-01   -0.10278E-01   146   0.554E-01    0.428E-01
RMM:   4    -0.977769351719E+02    0.66434E-02   -0.16031E-02   144   0.227E-01    0.214E-01
RMM:   5    -0.977760807025E+02    0.85447E-03   -0.22471E-03   152   0.850E-02    0.106E-01
RMM:   6    -0.977758744306E+02    0.20627E-03   -0.28923E-04   106   0.383E-02    0.366E-02
RMM:   7    -0.977758488751E+02    0.25555E-04   -0.58896E-05    91   0.206E-02
   3 F= -.97775849E+02 E0= -.97740332E+02  d E =-.146834E+02
       N       E                     dE             d eps       ncg     rms          rms(c)
RMM:   1    -0.991708479859E+02   -0.13950E+01   -0.11874E+01   144   0.900E+00    0.142E+00
RMM:   2    -0.990059530547E+02    0.16489E+00   -0.46109E-01   144   0.139E+00    0.561E-01
RMM:   3    -0.989853986304E+02    0.20554E-01   -0.55256E-02   147   0.385E-01    0.264E-01
RMM:   4    -0.989826591166E+02    0.27395E-02   -0.86771E-03   147   0.162E-01    0.117E-01
RMM:   5    -0.989825999022E+02    0.59214E-04   -0.91833E-04   134   0.525E-02
   4 F= -.98982600E+02 E0= -.98948871E+02  d E =-.120675E+01
       N       E                     dE             d eps       ncg     rms          rms(c)
RMM:   1    -0.992141764566E+02   -0.23152E+00   -0.43692E+00   144   0.546E+00    0.821E-01
RMM:   2    -0.991581791127E+02    0.55997E-01   -0.15807E-01   144   0.827E-01    0.348E-01
RMM:   3    -0.991506823440E+02    0.74968E-02   -0.19533E-02   146   0.232E-01    0.164E-01
RMM:   4    -0.991497557243E+02    0.92662E-03   -0.33598E-03   147   0.101E-01    0.692E-02
RMM:   5    -0.991497577567E+02   -0.20324E-05   -0.28153E-04   107   0.302E-02
   5 F= -.99149758E+02 E0= -.99112827E+02  d E =-.137391E+01
       N       E                     dE             d eps       ncg     rms          rms(c)
RMM:   1    -0.999303636090E+02   -0.78061E+00   -0.11485E+01   144   0.887E+00    0.147E+00
RMM:   2    -0.997489003573E+02    0.18146E+00   -0.60741E-01   144   0.146E+00    0.643E-01
RMM:   3    -0.997147441557E+02    0.34156E-01   -0.69909E-02   146   0.398E-01    0.267E-01
RMM:   4    -0.997127573844E+02    0.19868E-02   -0.95879E-03   148   0.163E-01    0.113E-01
RMM:   5    -0.997127460367E+02    0.11348E-04   -0.69178E-04   126   0.480E-02
   6 F= -.99712746E+02 E0= -.99676587E+02  d E =-.562988E+00
       N       E                     dE             d eps       ncg     rms          rms(c)
RMM:   1    -0.997182138367E+02   -0.54565E-02   -0.92262E-02   144   0.794E-01    0.135E-01
RMM:   2    -0.997167857054E+02    0.14281E-02   -0.48233E-03   143   0.130E-01    0.602E-02
RMM:   3    -0.997165452841E+02    0.24042E-03   -0.55441E-04   125   0.355E-02    0.297E-02
RMM:   4    -0.997165347407E+02    0.10543E-04   -0.62133E-05    89   0.163E-02
   7 F= -.99716535E+02 E0= -.99680921E+02  d E =-.566777E+00
       N       E                     dE             d eps       ncg     rms          rms(c)
RMM:   1    -0.999191658970E+02   -0.20262E+00   -0.19298E+00   144   0.356E+00    0.655E-01
RMM:   2    -0.998843155797E+02    0.34850E-01   -0.84466E-02   144   0.567E-01    0.213E-01
RMM:   3    -0.998808163988E+02    0.34992E-02   -0.91823E-03   145   0.156E-01    0.907E-02
RMM:   4    -0.998804037184E+02    0.41268E-03   -0.14434E-03   142   0.649E-02    0.354E-02
RMM:   5    -0.998804007956E+02    0.29228E-05   -0.82414E-05    93   0.186E-02
   8 F= -.99880401E+02 E0= -.99856442E+02  d E =-.163866E+00
       N       E                     dE             d eps       ncg     rms          rms(c)
RMM:   1    -0.999322589959E+02   -0.51855E-01   -0.97001E-01   144   0.252E+00    0.453E-01
RMM:   2    -0.999154929745E+02    0.16766E-01   -0.41231E-02   144   0.399E-01    0.145E-01
RMM:   3    -0.999139361402E+02    0.15568E-02   -0.42158E-03   145   0.108E-01    0.640E-02
RMM:   4    -0.999137464467E+02    0.18969E-03   -0.65695E-04   128   0.443E-02    0.264E-02
RMM:   5    -0.999137468144E+02   -0.36772E-06   -0.45920E-05    88   0.152E-02
   9 F= -.99913747E+02 E0= -.99897833E+02  d E =-.197212E+00
       N       E                     dE             d eps       ncg     rms          rms(c)
RMM:   1    -0.100070881444E+03   -0.15713E+00   -0.14550E+00   144   0.312E+00    0.577E-01
RMM:   2    -0.100040061474E+03    0.30820E-01   -0.88359E-02   144   0.529E-01    0.172E-01
RMM:   3    -0.100037710340E+03    0.23511E-02   -0.70934E-03   146   0.127E-01    0.798E-02
RMM:   4    -0.100037484710E+03    0.22563E-03   -0.67777E-04   131   0.455E-02    0.395E-02
RMM:   5    -0.100037488051E+03   -0.33413E-05   -0.10760E-04    90   0.203E-02
  10 F= -.10003749E+03 E0= -.10003328E+03  d E =-.123741E+00
       N       E                     dE             d eps       ncg     rms          rms(c)
RMM:   1    -0.100360260541E+03   -0.32278E+00   -0.13094E+01   144   0.929E+00    0.124E+00
RMM:   2    -0.100176320939E+03    0.18394E+00   -0.46622E-01   144   0.137E+00    0.516E-01
RMM:   3    -0.100158503352E+03    0.17818E-01   -0.48256E-02   145   0.368E-01    0.259E-01
RMM:   4    -0.100155664698E+03    0.28387E-02   -0.15846E-02   146   0.200E-01    0.973E-02
RMM:   5    -0.100155585319E+03    0.79379E-04   -0.10587E-03   135   0.572E-02    0.516E-02
RMM:   6    -0.100155590899E+03   -0.55800E-05   -0.14374E-04    95   0.232E-02
  11 F= -.10015559E+03 E0= -.10019253E+03  d E =-.241844E+00
       N       E                     dE             d eps       ncg     rms          rms(c)
RMM:   1    -0.100287849019E+03   -0.13226E+00   -0.16069E+00   144   0.327E+00    0.413E-01
RMM:   2    -0.100274244702E+03    0.13604E-01   -0.38294E-02   144   0.451E-01    0.151E-01
RMM:   3    -0.100273020969E+03    0.12237E-02   -0.39735E-03   144   0.121E-01    0.756E-02
RMM:   4    -0.100272859980E+03    0.16099E-03   -0.54819E-04   129   0.444E-02    0.362E-02
RMM:   5    -0.100272852443E+03    0.75370E-05   -0.79942E-05    90   0.194E-02
  12 F= -.10027285E+03 E0= -.10029605E+03  d E =-.117262E+00
       N       E                     dE             d eps       ncg     rms          rms(c)
RMM:   1    -0.100290003230E+03   -0.17143E-01   -0.38397E-01   144   0.160E+00    0.207E-01
RMM:   2    -0.100286430572E+03    0.35727E-02   -0.94812E-03   144   0.224E-01    0.740E-02
RMM:   3    -0.100286151980E+03    0.27859E-03   -0.10070E-03   130   0.605E-02    0.373E-02
RMM:   4    -0.100286117702E+03    0.34278E-04   -0.11893E-04    90   0.236E-02
  13 F= -.10028612E+03 E0= -.10030564E+03  d E =-.130527E+00
       N       E                     dE             d eps       ncg     rms          rms(c)
RMM:   1    -0.100346557340E+03   -0.60405E-01   -0.72085E-01   144   0.236E+00    0.263E-01
RMM:   2    -0.100342302390E+03    0.42549E-02   -0.18432E-02   144   0.309E-01    0.120E-01
RMM:   3    -0.100341656075E+03    0.64631E-03   -0.23453E-03   146   0.919E-02    0.665E-02
RMM:   4    -0.100341565056E+03    0.91019E-04   -0.55088E-04   129   0.438E-02
  14 F= -.10034157E+03 E0= -.10035987E+03  d E =-.554474E-01
       N       E                     dE             d eps       ncg     rms          rms(c)
RMM:   1    -0.100364844217E+03   -0.23188E-01   -0.72580E-01   144   0.237E+00    0.267E-01
RMM:   2    -0.100360567431E+03    0.42768E-02   -0.18539E-02   145   0.311E-01    0.124E-01
RMM:   3    -0.100359919851E+03    0.64758E-03   -0.23508E-03   146   0.920E-02    0.694E-02
RMM:   4    -0.100359834309E+03    0.85542E-04   -0.56005E-04   129   0.439E-02
  15 F= -.10035983E+03 E0= -.10037735E+03  d E =-.737166E-01
       N       E                     dE             d eps       ncg     rms          rms(c)
RMM:   1    -0.100404613398E+03   -0.44694E-01   -0.32878E-01   144   0.167E+00    0.195E-01
RMM:   2    -0.100402243587E+03    0.23698E-02   -0.10500E-02   144   0.223E-01    0.883E-02
RMM:   3    -0.100402016642E+03    0.22695E-03   -0.12116E-03   133   0.619E-02    0.528E-02
RMM:   4    -0.100401990436E+03    0.26206E-04   -0.21281E-04    98   0.296E-02
  16 F= -.10040199E+03 E0= -.10042049E+03  d E =-.421561E-01
       N       E                     dE             d eps       ncg     rms          rms(c)
RMM:   1    -0.100529426458E+03   -0.12741E+00   -0.29518E+00   144   0.498E+00    0.575E-01
RMM:   2    -0.100507733212E+03    0.21693E-01   -0.94788E-02   144   0.670E-01    0.258E-01
RMM:   3    -0.100505369249E+03    0.23640E-02   -0.10702E-02   149   0.186E-01    0.150E-01
RMM:   4    -0.100505085495E+03    0.28375E-03   -0.20400E-03   146   0.837E-02    0.637E-02
RMM:   5    -0.100505117875E+03   -0.32380E-04   -0.15240E-04    95   0.267E-02
  17 F= -.10050512E+03 E0= -.10052594E+03  d E =-.145284E+00
       N       E                     dE             d eps       ncg     rms          rms(c)
RMM:   1    -0.100557037133E+03   -0.51952E-01   -0.36470E-01   144   0.165E+00    0.201E-01
RMM:   2    -0.100553991856E+03    0.30453E-02   -0.87068E-03   144   0.218E-01    0.859E-02
RMM:   3    -0.100553645645E+03    0.34621E-03   -0.10658E-03   137   0.608E-02    0.448E-02
RMM:   4    -0.100553579249E+03    0.66396E-04   -0.20472E-04    97   0.283E-02
  18 F= -.10055358E+03 E0= -.10057466E+03  d E =-.484614E-01
       N       E                     dE             d eps       ncg     rms          rms(c)
RMM:   1    -0.100591995191E+03   -0.38350E-01   -0.91892E-01   144   0.262E+00    0.320E-01
RMM:   2    -0.100584324595E+03    0.76706E-02   -0.22107E-02   145   0.346E-01    0.136E-01
RMM:   3    -0.100583463985E+03    0.86061E-03   -0.26924E-03   148   0.966E-02    0.712E-02
RMM:   4    -0.100583302079E+03    0.16191E-03   -0.54988E-04   128   0.425E-02    0.296E-02
RMM:   5    -0.100583303254E+03   -0.11745E-05   -0.41141E-05    89   0.150E-02
  19 F= -.10058330E+03 E0= -.10060503E+03  d E =-.781854E-01
       N       E                     dE             d eps       ncg     rms          rms(c)
RMM:   1    -0.100624272688E+03   -0.40971E-01   -0.39902E-01   144   0.177E+00    0.212E-01
RMM:   2    -0.100620975965E+03    0.32967E-02   -0.10378E-02   144   0.235E-01    0.910E-02
RMM:   3    -0.100620678985E+03    0.29698E-03   -0.11382E-03   137   0.643E-02    0.508E-02
RMM:   4    -0.100620627593E+03    0.51392E-04   -0.18898E-04    97   0.281E-02
  20 F= -.10062063E+03 E0= -.10064113E+03  d E =-.373243E-01
       N       E                     dE             d eps       ncg     rms          rms(c)
RMM:   1    -0.100685957431E+03   -0.65278E-01   -0.26418E+00   144   0.455E+00    0.550E-01
RMM:   2    -0.100663829712E+03    0.22128E-01   -0.71096E-02   144   0.611E-01    0.238E-01
RMM:   3    -0.100661659923E+03    0.21698E-02   -0.75696E-03   146   0.166E-01    0.132E-01
RMM:   4    -0.100661334868E+03    0.32505E-03   -0.12973E-03   146   0.684E-02    0.619E-02
RMM:   5    -0.100661345334E+03   -0.10465E-04   -0.13476E-04    94   0.251E-02
  21 F= -.10066135E+03 E0= -.10067891E+03  d E =-.780421E-01
       N       E                     dE             d eps       ncg     rms          rms(c)
RMM:   1    -0.100699057871E+03   -0.37723E-01   -0.32836E-01   144   0.166E+00    0.195E-01
RMM:   2    -0.100696552806E+03    0.25051E-02   -0.10412E-02   144   0.224E-01    0.883E-02
RMM:   3    -0.100696290962E+03    0.26184E-03   -0.10287E-03   131   0.616E-02    0.524E-02
RMM:   4    -0.100696275200E+03    0.15762E-04   -0.14512E-04    94   0.275E-02
  22 F= -.10069628E+03 E0= -.10071288E+03  d E =-.349299E-01
       N       E                     dE             d eps       ncg     rms          rms(c)
RMM:   1    -0.100789613444E+03   -0.93322E-01   -0.29398E+00   144   0.494E+00    0.588E-01
RMM:   2    -0.100766188699E+03    0.23425E-01   -0.97859E-02   144   0.680E-01    0.266E-01
RMM:   3    -0.100763188170E+03    0.30005E-02   -0.95250E-03   147   0.188E-01    0.151E-01
RMM:   4    -0.100763018418E+03    0.16975E-03   -0.15509E-03   147   0.765E-02    0.700E-02
RMM:   5    -0.100763041050E+03   -0.22632E-04   -0.17403E-04    93   0.291E-02
  23 F= -.10076304E+03 E0= -.10077785E+03  d E =-.101696E+00
       N       E                     dE             d eps       ncg     rms          rms(c)
RMM:   1    -0.100780014833E+03   -0.16996E-01   -0.13925E-01   144   0.980E-01    0.135E-01
RMM:   2    -0.100778513866E+03    0.15010E-02   -0.42384E-03   144   0.140E-01    0.510E-02
RMM:   3    -0.100778342845E+03    0.17102E-03   -0.43722E-04   120   0.381E-02    0.250E-02
RMM:   4    -0.100778317775E+03    0.25069E-04   -0.80852E-05    86   0.190E-02
  24 F= -.10077832E+03 E0= -.10079405E+03  d E =-.152767E-01
       N       E                     dE             d eps       ncg     rms          rms(c)
RMM:   1    -0.100785109908E+03   -0.67671E-02   -0.14025E-01   144   0.984E-01    0.136E-01
RMM:   2    -0.100783618013E+03    0.14919E-02   -0.42577E-03   144   0.141E-01    0.523E-02
RMM:   3    -0.100783448019E+03    0.16999E-03   -0.44433E-04   120   0.384E-02    0.264E-02
RMM:   4    -0.100783423868E+03    0.24151E-04   -0.82244E-05    85   0.193E-02
  25 F= -.10078342E+03 E0= -.10079999E+03  d E =-.203828E-01
