unknown system                          
           1
    10.906394    0.000000    0.000000
     0.000000   10.906394    0.000000
     0.000000    0.000000   10.906394
   Al   Mg
   1 106
Direct configuration=     1
   0.00481788  0.00000546  0.01053855
   0.08323621  0.99996509  0.25089748
   0.00025801  0.00000562  0.66537224
   0.99861464  0.33790460  0.99752392
   0.99783430  0.33721954  0.33570076
   0.99926902  0.33163058  0.66727854
   0.99862978  0.66206116  0.99748552
   0.99783767  0.66275735  0.33571363
   0.99929170  0.66840843  0.66726742
   0.32971847  0.00000814  0.00395438
   0.32351530  0.00003665  0.32965602
   0.33094869  0.99996540  0.66621512
   0.33342064  0.33264263  0.00085549
   0.33579557  0.33649178  0.33492977
   0.33333369  0.33218117  0.66797518
   0.33338409  0.66736454  0.00087290
   0.33573469  0.66353271  0.33490938
   0.33332027  0.66781790  0.66794486
   0.66692365  0.99999423  0.00256464
   0.66766936  0.99999417  0.33354428
   0.66610276  0.99994610  0.66668458
   0.66417681  0.33278791  0.00020342
   0.66536461  0.33188510  0.33482748
   0.66562825  0.33208921  0.66694756
   0.66417386  0.66724032  0.00023642
   0.66535981  0.66814197  0.33484755
   0.66562958  0.66788717  0.66693692
   0.99638633  0.18139949  0.16466551
   0.00001361  0.16550401  0.49717041
   0.99985196  0.16612454  0.83564061
   0.99847280  0.50003312  0.16715469
   0.99857572  0.50000189  0.50305618
   0.99893832  0.49998501  0.83079871
   0.99633881  0.81854095  0.16465127
   0.00002963  0.83455980  0.49716126
   0.99987820  0.83389082  0.83566239
   0.32938636  0.16593024  0.16847851
   0.33214265  0.16622785  0.50028723
   0.33195234  0.16551604  0.83466519
   0.33513351  0.50000622  0.16715412
   0.33443473  0.50001402  0.50256736
   0.33354755  0.49999408  0.83399051
   0.32937296  0.83413870  0.16848898
   0.33208709  0.83380789  0.50024252
   0.33193031  0.83445073  0.83469398
   0.66747910  0.16539735  0.16845701
   0.66670280  0.16506827  0.49974819
   0.66549186  0.16558324  0.83379517
   0.66279590  0.49997788  0.16752862
   0.66578619  0.50000268  0.50149838
   0.66483889  0.50001781  0.83309244
   0.66750036  0.83462689  0.16848570
   0.66672175  0.83489994  0.49973886
   0.66549273  0.83437979  0.83380253
   0.16180328  0.00003880  0.49185672
   0.16552121  0.99999375  0.83633258
   0.16753800  0.33749433  0.16646042
   0.16654704  0.33638698  0.50389271
   0.16664372  0.33231977  0.83319466
   0.16754151  0.66249043  0.16646073
   0.16652654  0.66363203  0.50383403
   0.16666138  0.66770106  0.83320514
   0.49754213  0.00000302  0.16857153
   0.49777064  0.99996219  0.49898907
   0.49868507  0.99995118  0.83458453
   0.49951113  0.33161031  0.16783803
   0.50000424  0.33200202  0.50133246
   0.49903072  0.33224205  0.83387161
   0.49949691  0.66842511  0.16785946
   0.49996120  0.66800199  0.50133034
   0.49901204  0.66773306  0.83387860
   0.84061910  0.00001662  0.17230122
   0.83540864  0.00000626  0.49773821
   0.83388322  0.99999523  0.83541209
   0.82899939  0.33723280  0.16721992
   0.83248111  0.33208664  0.50105922
   0.83155175  0.33273891  0.83255661
   0.82894488  0.66272780  0.16724278
   0.83249773  0.66792998  0.50103163
   0.83157732  0.66728867  0.83256111
   0.16628936  0.16769276  0.00372981
   0.16866481  0.18096891  0.33688667
   0.16557315  0.16487109  0.66575291
   0.16745184  0.49997666  0.99858697
   0.16674921  0.49995424  0.33527703
   0.16677393  0.50005021  0.66912792
   0.16626626  0.83232389  0.00380393
   0.16865212  0.81902245  0.33687574
   0.16557544  0.83513172  0.66573795
   0.49846063  0.16520982  0.00199677
   0.49753502  0.16480627  0.33381413
   0.49892275  0.16508983  0.66693901
   0.49887643  0.50002529  0.00037523
   0.50134362  0.50005154  0.33512449
   0.49956144  0.49998636  0.66761630
   0.49844961  0.83477423  0.00201606
   0.49750902  0.83519761  0.33381807
   0.49888896  0.83480708  0.66692259
   0.83164182  0.16775434  0.00084265
   0.83569094  0.16615655  0.33347717
   0.83357854  0.16511252  0.66662573
   0.82993291  0.49999544  0.99864264
   0.83024107  0.49998109  0.33565355
   0.83182198  0.50002763  0.66671532
   0.83165688  0.83223995  0.00086380
   0.83574901  0.83386145  0.33346474
   0.83359863  0.83487590  0.66662415
