Processors received = 1
script running on host compute-0-1.local
PBS_NODEFILE
compute-0-1
 running on    1 nodes
 each image running on    1 nodes
 distr:  one band on    1 nodes,    1 groups
 vasp.5.2.2 15Apr09 complex 
 POSCAR found type information on POSCAR  Al
 01/POSCAR found :  1 types and    3 ions
 LDA part: xc-table for Ceperly-Alder, standard interpolation
 POSCAR found type information on POSCAR  Al
 00/POSCAR found :  1 types and    3 ions
 POSCAR found type information on POSCAR  Al
 02/POSCAR found :  1 types and    3 ions
 POSCAR, INCAR and KPOINTS ok, starting setup
 FFT: planning ...(           1 )
 reading WAVECAR
 entering main loop
       N       E                     dE             d eps       ncg     rms          rms(c)
DAV:   1     0.931690804517E+01    0.93169E+01   -0.26451E+03    32   0.618E+02
DAV:   2    -0.727291632141E+01   -0.16590E+02   -0.16540E+02    40   0.746E+01
DAV:   3    -0.739190724092E+01   -0.11899E+00   -0.11912E+00    48   0.938E+00
DAV:   4    -0.739200239135E+01   -0.95150E-04   -0.95152E-04    64   0.264E-01
DAV:   5    -0.739200239745E+01   -0.60981E-08   -0.69549E-08    48   0.255E-03    0.282E+00
DAV:   6    -0.715785709697E+01    0.23415E+00   -0.26056E-01    64   0.279E+00    0.163E+00
DAV:   7    -0.707198339530E+01    0.85874E-01   -0.22039E-01    64   0.276E+00    0.321E-01
DAV:   8    -0.707062179588E+01    0.13616E-02   -0.10561E-02    48   0.796E-01    0.763E-02
DAV:   9    -0.707062025520E+01    0.15407E-05   -0.35115E-04    56   0.152E-01
   1 F= -.70706203E+01 E0= -.70777850E+01  d E =-.707062E+01
 BRION: g(F)=  0.787E-01 g(S)=  0.000E+00
 bond charge predicted
       N       E                     dE             d eps       ncg     rms          rms(c)
DAV:   1    -0.707823130811E+01   -0.76095E-02   -0.94290E-01    48   0.674E+00    0.377E-01
DAV:   2    -0.707199739805E+01    0.62339E-02   -0.38132E-02    48   0.139E+00    0.163E-01
DAV:   3    -0.707108693640E+01    0.91046E-03   -0.86364E-03    64   0.485E-01    0.355E-02
DAV:   4    -0.707109538161E+01   -0.84452E-05   -0.53541E-04    48   0.167E-01
   2 F= -.70710954E+01 E0= -.70796508E+01  d E =-.475126E-03
 BRION: g(F)=  0.887E-01 g(S)=  0.000E+00 retain N=  1 mean eig= 0.49
 eig:   0.485
 bond charge predicted
       N       E                     dE             d eps       ncg     rms          rms(c)
DAV:   1    -0.709288348253E+01   -0.21797E-01   -0.25265E-01    48   0.351E+00    0.195E-01
DAV:   2    -0.709126719974E+01    0.16163E-02   -0.10455E-02    32   0.721E-01    0.801E-02
DAV:   3    -0.709105901335E+01    0.20819E-03   -0.20668E-03    64   0.239E-01    0.180E-02
DAV:   4    -0.709106140369E+01   -0.23903E-05   -0.13142E-04    32   0.806E-02
   3 F= -.70910614E+01 E0= -.70990469E+01  d E =-.199660E-01
 BRION: g(F)=  0.236E-03 g(S)=  0.000E+00 retain N=  1 mean eig= 0.46
 eig:   0.461
 bond charge predicted
       N       E                     dE             d eps       ncg     rms          rms(c)
DAV:   1    -0.709112672787E+01   -0.67715E-04   -0.72357E-04    48   0.178E-01    0.102E-02
DAV:   2    -0.709112184617E+01    0.48817E-05   -0.29092E-05    16   0.394E-02
   4 F= -.70911218E+01 E0= -.70991539E+01  d E =-.604425E-04
 BRION: g(F)=  0.353E-05 g(S)=  0.000E+00 retain N=  1 mean eig= 0.53
 eig:   0.526
 reached required accuracy - stopping structural energy minimisation
