<?xml version="1.0" encoding="ISO-8859-1"?>
<modeling>
 <generator>
  <i name="program" type="string">vasp </i>
  <i name="version" type="string">5.2.2  </i>
  <i name="subversion" type="string">15Apr09 complex  parallel </i>
  <i name="platform" type="string">LinuxIFC </i>
  <i name="date" type="string">2013 08 21 </i>
  <i name="time" type="string">16:14:32 </i>
 </generator>
 <incar>
  <i type="string" name="PREC">accurate</i>
  <i type="int" name="IBRION">     1</i>
  <i type="int" name="NSW">   191</i>
  <i type="int" name="ISIF">     2</i>
  <i name="ENCUT">    360.65550000</i>
  <i name="POTIM">      0.50000000</i>
  <i type="int" name="ISMEAR">     1</i>
  <i name="SIGMA">      0.20000000</i>
  <i type="logical" name="LWAVE"> F  </i>
  <i type="logical" name="LCHARG"> F  </i>
  <i type="logical" name="LPEAD"> F  </i>
  <i type="logical" name="LCALCPOL"> F  </i>
  <i type="logical" name="LCALCEPS"> F  </i>
  <v name="EFIELD_PEAD">      0.00000000      0.00000000      0.00000000</v>
  <i type="logical" name="LEFG"> F  </i>
 </incar>
 <kpoints>
  <generation param="Monkhorst-Pack">
   <v type="int" name="divisions">       2        2        2 </v>
   <v name="usershift">      0.00000000       0.00000000       0.00000000 </v>
   <v name="genvec1">      0.50000000       0.00000000       0.00000000 </v>
   <v name="genvec2">      0.00000000       0.50000000       0.00000000 </v>
   <v name="genvec3">      0.00000000       0.00000000       0.50000000 </v>
   <v name="shift">      0.50000000       0.50000000       0.50000000 </v>
  </generation>
  <varray name="kpointlist" >
   <v>       0.25000000       0.25000000       0.25000000 </v>
   <v>      -0.25000000       0.25000000       0.25000000 </v>
  </varray>
  <varray name="weights" >
   <v>       0.50000000 </v>
   <v>       0.50000000 </v>
  </varray>
 </kpoints>
 <parameters>
  <separator name="general" >
   <i type="string" name="SYSTEM">unknown system</i>
   <i type="logical" name="LCOMPAT"> F  </i>
  </separator>
  <separator name="electronic" >
   <i type="string" name="PREC">accura</i>
   <i name="ENMAX">    360.65550000</i>
   <i name="ENAUG">    291.05200000</i>
   <i name="EDIFF">      0.00010000</i>
   <i type="int" name="IALGO">    38</i>
   <i type="int" name="IWAVPR">    11</i>
   <i type="int" name="NBANDS">     8</i>
   <i name="NELECT">      9.00000000</i>
   <separator name="electronic smearing" >
    <i type="int" name="ISMEAR">     1</i>
    <i name="SIGMA">      0.20000000</i>
   </separator>
   <separator name="electronic projectors" >
    <i type="logical" name="LREAL"> F  </i>
    <v name="ROPT">      0.00000000</v>
    <i type="int" name="LMAXPAW">  -100</i>
    <i type="int" name="LMAXMIX">     2</i>
   </separator>
   <separator name="electronic startup" >
    <i type="int" name="ISTART">     0</i>
    <i type="int" name="ICHARG">     2</i>
    <i type="int" name="INIWAV">     1</i>
   </separator>
   <separator name="electronic spin" >
    <i type="int" name="ISPIN">     1</i>
    <i type="logical" name="LNONCOLLINEAR"> F  </i>
    <v name="MAGMOM">      1.00000000      1.00000000      1.00000000</v>
    <i name="NUPDOWN">     -1.00000000</i>
    <i type="logical" name="LSORBIT"> F  </i>
    <v name="SAXIS">      0.00000000      0.00000000      1.00000000</v>
    <i type="logical" name="LSPIRAL"> F  </i>
    <v name="QSPIRAL">      0.00000000      0.00000000      0.00000000</v>
    <i type="logical" name="LZEROZ"> F  </i>
   </separator>
   <separator name="electronic exchange-correlation" >
    <i type="logical" name="LASPH"> F  </i>
    <i type="logical" name="LMETAGGA"> F  </i>
   </separator>
   <separator name="electronic convergence" >
    <i type="int" name="NELM">    60</i>
    <i type="int" name="NELMDL">    -5</i>
    <i type="int" name="NELMIN">     2</i>
    <i name="ENINI">    360.65550000</i>
    <separator name="electronic convergence detail" >
     <i type="logical" name="LDIAG"> T  </i>
     <i name="WEIMIN">      0.00100000</i>
     <i name="EBREAK">      0.00000313</i>
     <i name="DEPER">      0.30000000</i>
     <i type="int" name="NRMM">     4</i>
     <i name="TIME">      0.40000000</i>
    </separator>
   </separator>
   <separator name="electronic mixer" >
    <i name="AMIX">      0.40000000</i>
    <i name="BMIX">      1.00000000</i>
    <i name="AMIN">      0.10000000</i>
    <i name="AMIX_MAG">      1.60000000</i>
    <i name="BMIX_MAG">      1.00000000</i>
    <separator name="electronic mixer details" >
     <i type="int" name="IMIX">     4</i>
     <i type="int" name="MAXMIX">   -45</i>
     <i name="WC">    100.00000000</i>
     <i type="int" name="INIMIX">     1</i>
     <i type="int" name="MIXPRE">     1</i>
     <i type="int" name="MREMOVE">     5</i>
    </separator>
   </separator>
   <separator name="electronic dipolcorrection" >
    <i type="logical" name="LDIPOL"> F  </i>
    <i type="logical" name="LMONO"> F  </i>
    <i type="int" name="IDIPOL">     0</i>
    <i name="EPSILON">      1.00000000</i>
    <v name="DIPOL">   -100.00000000   -100.00000000   -100.00000000</v>
    <i name="EFIELD">      0.00000000</i>
   </separator>
  </separator>
  <separator name="grids" >
   <i type="int" name="NGX">    24</i>
   <i type="int" name="NGY">    24</i>
   <i type="int" name="NGZ">    24</i>
   <i type="int" name="NGXF">    48</i>
   <i type="int" name="NGYF">    48</i>
   <i type="int" name="NGZF">    48</i>
   <i type="logical" name="ADDGRID"> F  </i>
  </separator>
  <separator name="ionic" >
   <i type="int" name="NSW">   191</i>
   <i type="int" name="IBRION">     1</i>
   <i type="int" name="ISIF">     2</i>
   <i name="PSTRESS">      0.00000000</i>
   <i name="EDIFFG">      0.00100000</i>
   <i type="int" name="NFREE">     0</i>
   <i name="POTIM">      0.50000000</i>
   <i name="SMASS">     -3.00000000</i>
  </separator>
  <separator name="ionic md" >
   <i name="TEBEG">      0.00010000</i>
   <i name="TEEND">      0.00010000</i>
   <i type="int" name="NBLOCK">     1</i>
   <i type="int" name="KBLOCK">   191</i>
   <i type="int" name="NPACO">   256</i>
   <i name="APACO">     16.00000000</i>
  </separator>
  <separator name="symmetry" >
   <i type="int" name="ISYM">     2</i>
   <i name="SYMPREC">      0.00001000</i>
  </separator>
  <separator name="dos" >
   <i type="logical" name="LORBIT"> F  </i>
   <v name="RWIGS">     -1.00000000</v>
   <i type="int" name="NEDOS">   301</i>
   <i name="EMIN">     10.00000000</i>
   <i name="EMAX">    -10.00000000</i>
   <i name="EFERMI">      0.00000000</i>
  </separator>
  <separator name="writing" >
   <i type="int" name="NWRITE">     2</i>
   <i type="logical" name="LWAVE"> F  </i>
   <i type="logical" name="LCHARG"> F  </i>
   <i type="logical" name="LPARD"> F  </i>
   <i type="logical" name="LVTOT"> F  </i>
   <i type="logical" name="LELF"> F  </i>
   <i type="logical" name="LOPTICS"> F  </i>
   <v name="STM">      0.00000000      0.00000000      0.00000000      0.00000000      0.00000000</v>
  </separator>
  <separator name="performance" >
   <i type="int" name="NPAR">     1</i>
   <i type="int" name="NSIM">     4</i>
   <i type="int" name="NBLK">    32</i>
   <i type="logical" name="LPLANE"> T  </i>
   <i type="logical" name="LSCALAPACK"> F  </i>
   <i type="logical" name="LSCAAWARE"> F  </i>
   <i type="logical" name="LSCALU"> F  </i>
   <i type="logical" name="LASYNC"> F  </i>
  </separator>
  <separator name="miscellaneous" >
   <i type="int" name="IDIOT">     3</i>
   <i type="logical" name="LMUSIC"> F  </i>
   <v name="POMASS">     26.98200000</v>
   <i type="logical" name="LCORR"> T  </i>
  </separator>
  <i type="logical" name="LREAL_COMPAT"> F  </i>
  <i type="logical" name="GGA_COMPAT"> T  </i>
  <i type="logical" name="LBERRY"> F  </i>
  <i type="int" name="ICORELEVEL">     0</i>
  <i type="logical" name="LDAU"> F  </i>
  <i type="int" name="I_CONSTRAINED_M">     0</i>
  <separator name="electronic exchange-correlation" >
   <i type="string" name="GGA">--</i>
   <i type="int" name="VOSKOWN">     0</i>
   <i type="logical" name="LHFCALC"> F  </i>
   <i type="logical" name="LHFONE"> F  </i>
   <i type="logical" name="LRHFCALC"> F  </i>
   <i type="logical" name="LTHOMAS"> F  </i>
   <i type="logical" name="LMODELHF"> F  </i>
   <i name="ENCUTFOCK">      0.00000000</i>
   <i name="ENCUT4O">     -1.00000000</i>
   <i type="int" name="EXXOEP">     0</i>
   <i type="int" name="FOURORBIT">     0</i>
   <i name="AEXX">      0.00000000</i>
   <i name="HFALPHA">      0.00000000</i>
   <i name="ALDAX">      1.00000000</i>
   <i name="AGGAX">      1.00000000</i>
   <i name="ALDAC">      1.00000000</i>
   <i name="AGGAC">      1.00000000</i>
   <i type="int" name="NKREDX">     1</i>
   <i type="int" name="NKREDY">     1</i>
   <i type="int" name="NKREDZ">     1</i>
   <i type="logical" name="SHIFTRED"> F  </i>
   <i type="logical" name="ODDONLY"> F  </i>
   <i type="logical" name="EVENONLY"> F  </i>
   <i type="int" name="LMAXFOCK">     0</i>
   <i type="int" name="NMAXFOCKAE">     0</i>
   <i name="HFSCREEN">      0.00000000</i>
   <i name="HFSCREENC">      0.00000000</i>
  </separator>
  <separator name="model GW" >
   <i type="int" name="MODEL_GW">     0</i>
   <i name="MODEL_EPS0">      8.57500000</i>
   <i name="MODEL_ALPHA">      1.00000000</i>
  </separator>
  <separator name="linear response parameters" >
   <i type="logical" name="LEPSILON"> F  </i>
   <i type="logical" name="LRPA"> F  </i>
   <i type="logical" name="LNABLA"> F  </i>
   <i type="logical" name="LVEL"> F  </i>
   <i type="int" name="KINTER">     0</i>
   <i name="CSHIFT">      0.10000000</i>
   <i name="OMEGAMAX">     -1.00000000</i>
  </separator>
  <separator name="orbital magnetization" >
   <i type="logical" name="ORBITALMAG"> F  </i>
   <i type="logical" name="LMAGBLOCH"> F  </i>
   <i type="logical" name="LCHIMAG"> F  </i>
   <i type="logical" name="LGAUGE"> T  </i>
   <i type="int" name="MAGATOM">     0</i>
   <v name="MAGDIPOL">      0.00000000      0.00000000      0.00000000</v>
   <v name="AVECCONST">      0.00000000      0.00000000      0.00000000</v>
  </separator>
  <separator name="response functions" >
   <i type="logical" name="LRPA"> T  </i>
   <i type="logical" name="LTCTE"> F  </i>
   <i type="logical" name="LTETE"> F  </i>
   <i type="logical" name="L2ORDER"> F  </i>
   <i type="logical" name="LGWLF"> F  </i>
   <i name="ENCUTGW">    240.43700000</i>
   <i name="ENCUTGWSOFT">     -2.00000000</i>
   <i name="ENCUTLF">     -1.00000000</i>
   <i type="int" name="LMAXMP2">    -1</i>
   <i name="SCISSOR">      0.00000000</i>
   <i type="int" name="NOMEGA">     0</i>
   <i type="int" name="NOMEGAR">     0</i>
   <i type="int" name="NBANDSGW">    -1</i>
   <i type="int" name="NBANDSLF">    -1</i>
   <i type="int" name="NELM">     1</i>
   <i type="int" name="DIM">     3</i>
   <i type="int" name="ANTIRES">     0</i>
   <i type="logical" name="LUSEW"> F  </i>
   <i name="OMEGAMAX">    -30.00000000</i>
   <i name="OMEGATL">   -200.00000000</i>
   <i type="int" name="OMEGAGRID">     0</i>
   <i name="CSHIFT">     -0.10000000</i>
   <i type="logical" name="SELFENERGY"> F  </i>
   <i type="logical" name="LSPECTRAL"> F  </i>
   <i type="logical" name="ODDONLYGW"> F  </i>
   <i type="logical" name="EVENONLYGW"> F  </i>
   <i type="int" name="NKREDLFX">     1</i>
   <i type="int" name="NKREDLFY">     1</i>
   <i type="int" name="NKREDLFZ">     1</i>
   <i type="int" name="MAXMEM">  1024</i>
   <i type="int" name="TELESCOPE">     0</i>
  </separator>
 </parameters>
 <atominfo>
  <atoms>       3 </atoms>
  <types>       1 </types>
  <array name="atoms" >
   <dimension dim="1">ion</dimension>
   <field type="string">element</field>
   <field type="int">atomtype</field>
   <set>
    <rc><c>Al</c><c>   1</c></rc>
    <rc><c>Al</c><c>   1</c></rc>
    <rc><c>Al</c><c>   1</c></rc>
   </set>
  </array>
  <array name="atomtypes" >
   <dimension dim="1">type</dimension>
   <field type="int">atomspertype</field>
   <field type="string">element</field>
   <field>mass</field>
   <field>valence</field>
   <field type="string">pseudopotential</field>
   <set>
    <rc><c>   3</c><c>Al</c><c>     26.98200000</c><c>      3.00000000</c><c> PAW_GGA Al 05Jan2001                   </c></rc>
   </set>
  </array>
 </atominfo>
 <structure name="initialpos" >
  <crystal>
   <varray name="basis" >
    <v>       3.50000000       0.00000000       0.00000000 </v>
    <v>       0.00000000       3.50000000       0.00000000 </v>
    <v>       0.00000000       0.00000000       3.50000000 </v>
   </varray>
   <i name="volume">     42.87500000 </i>
   <varray name="rec_basis" >
    <v>       0.28571429       0.00000000       0.00000000 </v>
    <v>       0.00000000       0.28571429       0.00000000 </v>
    <v>       0.00000000       0.00000000       0.28571429 </v>
   </varray>
  </crystal>
  <varray name="positions" >
   <v>       0.25000000       0.25000000       0.00000000 </v>
   <v>       0.97253600       0.52746400       0.50000000 </v>
   <v>       0.52746400       0.97253600       0.50000000 </v>
  </varray>
 </structure>
 <calculation>
  <scstep>
   <time name="dav">    0.76    0.21</time>
   <time name="total">    1.47    0.74</time>
   <energy>
    <i name="alphaZ">     -0.53451638 </i>
    <i name="ewald">   -221.63441899 </i>
    <i name="hartreedc">     -1.99746987 </i>
    <i name="XCdc">    -78.37261781 </i>
    <i name="pawpsdc">    106.97730018 </i>
    <i name="pawaedc">    -10.81747568 </i>
    <i name="eentropy">     -0.02102256 </i>
    <i name="bandstr">     54.64597512 </i>
    <i name="atom">    161.07115403 </i>
    <i name="e_fr_energy">      9.31690805 </i>
    <i name="e_wo_entrp">      9.33793060 </i>
    <i name="e_0_energy">      9.32391556 </i>
   </energy>
  </scstep>
  <scstep>
   <time name="dav">    0.95    0.24</time>
   <time name="total">    0.96    0.24</time>
   <energy>
    <i name="e_fr_energy">     -7.27291632 </i>
    <i name="e_wo_entrp">     -7.28145190 </i>
    <i name="e_0_energy">     -7.27576152 </i>
   </energy>
  </scstep>
  <scstep>
   <time name="dav">    0.79    0.20</time>
   <time name="total">    0.80    0.20</time>
   <energy>
    <i name="e_fr_energy">     -7.39190724 </i>
    <i name="e_wo_entrp">     -7.40412128 </i>
    <i name="e_0_energy">     -7.39597859 </i>
   </energy>
  </scstep>
  <scstep>
   <time name="dav">    0.77    0.19</time>
   <time name="total">    0.78    0.20</time>
   <energy>
    <i name="e_fr_energy">     -7.39200239 </i>
    <i name="e_wo_entrp">     -7.40423134 </i>
    <i name="e_0_energy">     -7.39607871 </i>
   </energy>
  </scstep>
  <scstep>
   <time name="dav">    0.60    0.15</time>
   <time name="total">    0.79    0.20</time>
   <energy>
    <i name="e_fr_energy">     -7.39200240 </i>
    <i name="e_wo_entrp">     -7.40423135 </i>
    <i name="e_0_energy">     -7.39607871 </i>
   </energy>
  </scstep>
  <scstep>
   <time name="dav">    0.73    0.19</time>
   <time name="total">    1.24    0.54</time>
   <energy>
    <i name="e_fr_energy">     -7.15785710 </i>
    <i name="e_wo_entrp">     -7.17893035 </i>
    <i name="e_0_energy">     -7.16488151 </i>
   </energy>
  </scstep>
  <scstep>
   <time name="dav">    0.73    0.19</time>
   <time name="total">    1.25    0.54</time>
   <energy>
    <i name="e_fr_energy">     -7.07198340 </i>
    <i name="e_wo_entrp">     -7.09502930 </i>
    <i name="e_0_energy">     -7.07966536 </i>
   </energy>
  </scstep>
  <scstep>
   <time name="dav">    0.57    0.15</time>
   <time name="total">    1.12    0.50</time>
   <energy>
    <i name="e_fr_energy">     -7.07062180 </i>
    <i name="e_wo_entrp">     -7.09198764 </i>
    <i name="e_0_energy">     -7.07774374 </i>
   </energy>
  </scstep>
  <scstep>
   <time name="dav">    0.65    0.17</time>
   <time name="total">    1.07    0.47</time>
   <energy>
    <i name="alphaZ">     -0.53451638 </i>
    <i name="ewald">   -221.63441899 </i>
    <i name="hartreedc">     -3.86998644 </i>
    <i name="XCdc">    -77.75220499 </i>
    <i name="pawpsdc">    116.77390958 </i>
    <i name="pawaedc">    -21.09467471 </i>
    <i name="eentropy">      0.02149431 </i>
    <i name="bandstr">     39.94862332 </i>
    <i name="atom">    161.07115403 </i>
    <i name="e_fr_energy">     -7.07062026 </i>
    <i name="e_wo_entrp">     -7.09211457 </i>
    <i name="e_0_energy">     -7.07778503 </i>
   </energy>
  </scstep>
  <structure>
   <crystal>
    <varray name="basis" >
     <v>       3.50000000       0.00000000       0.00000000 </v>
     <v>       0.00000000       3.50000000       0.00000000 </v>
     <v>       0.00000000       0.00000000       3.50000000 </v>
    </varray>
    <i name="volume">     42.87500000 </i>
    <varray name="rec_basis" >
     <v>       0.28571429       0.00000000       0.00000000 </v>
     <v>       0.00000000       0.28571429       0.00000000 </v>
     <v>       0.00000000       0.00000000       0.28571429 </v>
    </varray>
   </crystal>
   <varray name="positions" >
    <v>       0.25000000       0.25000000       0.00000000 </v>
    <v>       0.97253600       0.52746400       0.50000000 </v>
    <v>       0.52746400       0.97253600       0.50000000 </v>
   </varray>
  </structure>
  <varray name="forces" >
   <v>       0.00000000       0.00000000       0.00000000 </v>
   <v>      -0.63851519       0.63851519       0.00000000 </v>
   <v>       0.63851519      -0.63851519       0.00000000 </v>
  </varray>
  <varray name="stress" >
   <v>     548.03742193    -247.33726644       0.00000000 </v>
   <v>    -247.33726644     548.03742193       0.00000000 </v>
   <v>       0.00000000       0.00000000     739.72630116 </v>
  </varray>
  <energy>
   <i name="e_fr_energy">     -7.07062026 </i>
   <i name="e_wo_entrp">     -7.07778503 </i>
   <i name="e_0_energy">      0.02149431 </i>
  </energy>
  <time name="totalsc">   11.18    4.70</time>
 </calculation>
 <calculation>
  <scstep>
   <time name="dav">    0.58    0.15</time>
   <time name="total">    1.20    0.49</time>
   <energy>
    <i name="alphaZ">     -0.53451638 </i>
    <i name="ewald">   -222.12529995 </i>
    <i name="hartreedc">     -3.61707062 </i>
    <i name="XCdc">    -77.77403901 </i>
    <i name="pawpsdc">    116.70124376 </i>
    <i name="pawaedc">    -21.01890180 </i>
    <i name="eentropy">      0.02483394 </i>
    <i name="bandstr">     40.19436472 </i>
    <i name="atom">    161.07115403 </i>
    <i name="e_fr_energy">     -7.07823131 </i>
    <i name="e_wo_entrp">     -7.10306525 </i>
    <i name="e_0_energy">     -7.08650929 </i>
   </energy>
  </scstep>
  <scstep>
   <time name="dav">    0.57    0.15</time>
   <time name="total">    1.09    0.49</time>
   <energy>
    <i name="e_fr_energy">     -7.07199740 </i>
    <i name="e_wo_entrp">     -7.09798009 </i>
    <i name="e_0_energy">     -7.08065830 </i>
   </energy>
  </scstep>
  <scstep>
   <time name="dav">    0.74    0.19</time>
   <time name="total">    1.24    0.54</time>
   <energy>
    <i name="e_fr_energy">     -7.07108694 </i>
    <i name="e_wo_entrp">     -7.09666479 </i>
    <i name="e_0_energy">     -7.07961289 </i>
   </energy>
  </scstep>
  <scstep>
   <time name="dav">    0.57    0.15</time>
   <time name="total">    0.94    0.45</time>
   <energy>
    <i name="alphaZ">     -0.53451638 </i>
    <i name="ewald">   -222.12529995 </i>
    <i name="hartreedc">     -3.54965155 </i>
    <i name="XCdc">    -77.77538083 </i>
    <i name="pawpsdc">    116.64287555 </i>
    <i name="pawaedc">    -20.95761254 </i>
    <i name="eentropy">      0.02566616 </i>
    <i name="bandstr">     40.13167012 </i>
    <i name="atom">    161.07115403 </i>
    <i name="e_fr_energy">     -7.07109538 </i>
    <i name="e_wo_entrp">     -7.09676155 </i>
    <i name="e_0_energy">     -7.07965077 </i>
   </energy>
  </scstep>
  <structure>
   <crystal>
    <varray name="basis" >
     <v>       3.50000000       0.00000000       0.00000000 </v>
     <v>       0.00000000       3.50000000       0.00000000 </v>
     <v>       0.00000000       0.00000000       3.50000000 </v>
    </varray>
    <i name="volume">     42.87500000 </i>
    <varray name="rec_basis" >
     <v>       0.28571429       0.00000000       0.00000000 </v>
     <v>       0.00000000       0.28571429       0.00000000 </v>
     <v>       0.00000000       0.00000000       0.28571429 </v>
    </varray>
   </crystal>
   <varray name="positions" >
    <v>       0.25000000       0.25000000       0.00000000 </v>
    <v>       0.96373495       0.53626505       0.50000000 </v>
    <v>       0.53626505       0.96373495       0.50000000 </v>
   </varray>
  </structure>
  <varray name="forces" >
   <v>       0.00000000       0.00000000       0.00000000 </v>
   <v>       0.67786065      -0.67786065       0.00000000 </v>
   <v>      -0.67786065       0.67786065       0.00000000 </v>
  </varray>
  <varray name="stress" >
   <v>     589.68676199    -328.05605448       0.00000000 </v>
   <v>    -328.05605448     589.68676199       0.00000000 </v>
   <v>       0.00000000       0.00000000     650.69861677 </v>
  </varray>
  <energy>
   <i name="e_fr_energy">     -7.07109538 </i>
   <i name="e_wo_entrp">     -7.07965077 </i>
   <i name="e_0_energy">      0.02566616 </i>
  </energy>
  <time name="totalsc">    6.11    3.04</time>
 </calculation>
 <calculation>
  <scstep>
   <time name="dav">    0.57    0.15</time>
   <time name="total">    1.19    0.49</time>
   <energy>
    <i name="alphaZ">     -0.53451638 </i>
    <i name="ewald">   -221.90701346 </i>
    <i name="hartreedc">     -3.65985817 </i>
    <i name="XCdc">    -77.76443809 </i>
    <i name="pawpsdc">    116.63466004 </i>
    <i name="pawaedc">    -20.94919134 </i>
    <i name="eentropy">      0.02288255 </i>
    <i name="bandstr">     39.99343733 </i>
    <i name="atom">    161.07115403 </i>
    <i name="e_fr_energy">     -7.09288348 </i>
    <i name="e_wo_entrp">     -7.11576603 </i>
    <i name="e_0_energy">     -7.10051100 </i>
   </energy>
  </scstep>
  <scstep>
   <time name="dav">    0.41    0.11</time>
   <time name="total">    0.92    0.45</time>
   <energy>
    <i name="e_fr_energy">     -7.09126720 </i>
    <i name="e_wo_entrp">     -7.11492365 </i>
    <i name="e_0_energy">     -7.09915268 </i>
   </energy>
  </scstep>
  <scstep>
   <time name="dav">    0.73    0.19</time>
   <time name="total">    1.23    0.53</time>
   <energy>
    <i name="e_fr_energy">     -7.09105901 </i>
    <i name="e_wo_entrp">     -7.11510381 </i>
    <i name="e_0_energy">     -7.09907395 </i>
   </energy>
  </scstep>
  <scstep>
   <time name="dav">    0.43    0.12</time>
   <time name="total">    0.80    0.41</time>
   <energy>
    <i name="alphaZ">     -0.53451638 </i>
    <i name="ewald">   -221.90701346 </i>
    <i name="hartreedc">     -3.69903932 </i>
    <i name="XCdc">    -77.76329156 </i>
    <i name="pawpsdc">    116.62710843 </i>
    <i name="pawaedc">    -20.94160565 </i>
    <i name="eentropy">      0.02395653 </i>
    <i name="bandstr">     40.03218598 </i>
    <i name="atom">    161.07115403 </i>
    <i name="e_fr_energy">     -7.09106140 </i>
    <i name="e_wo_entrp">     -7.11501794 </i>
    <i name="e_0_energy">     -7.09904692 </i>
   </energy>
  </scstep>
  <structure>
   <crystal>
    <varray name="basis" >
     <v>       3.50000000       0.00000000       0.00000000 </v>
     <v>       0.00000000       3.50000000       0.00000000 </v>
     <v>       0.00000000       0.00000000       3.50000000 </v>
    </varray>
    <i name="volume">     42.87500000 </i>
    <varray name="rec_basis" >
     <v>       0.28571429       0.00000000       0.00000000 </v>
     <v>       0.00000000       0.28571429       0.00000000 </v>
     <v>       0.00000000       0.00000000       0.28571429 </v>
    </varray>
   </crystal>
   <varray name="positions" >
    <v>       0.25000000       0.25000000       0.00000000 </v>
    <v>       0.96826700       0.53173300       0.50000000 </v>
    <v>       0.53173300       0.96826700       0.50000000 </v>
   </varray>
  </structure>
  <varray name="forces" >
   <v>       0.00000000       0.00000000       0.00000000 </v>
   <v>      -0.03495206       0.03495206       0.00000000 </v>
   <v>       0.03495206      -0.03495206       0.00000000 </v>
  </varray>
  <varray name="stress" >
   <v>     567.32056002    -283.19545889       0.00000000 </v>
   <v>    -283.19545889     567.32056002       0.00000000 </v>
   <v>       0.00000000       0.00000000     695.68318201 </v>
  </varray>
  <energy>
   <i name="e_fr_energy">     -7.09106140 </i>
   <i name="e_wo_entrp">     -7.09904692 </i>
   <i name="e_0_energy">      0.02395653 </i>
  </energy>
  <time name="totalsc">    5.81    2.93</time>
 </calculation>
 <calculation>
  <scstep>
   <time name="dav">    0.57    0.15</time>
   <time name="total">    1.19    0.49</time>
   <energy>
    <i name="alphaZ">     -0.53451638 </i>
    <i name="ewald">   -221.91944734 </i>
    <i name="hartreedc">     -3.69493235 </i>
    <i name="XCdc">    -77.76382299 </i>
    <i name="pawpsdc">    116.62658588 </i>
    <i name="pawaedc">    -20.94099962 </i>
    <i name="eentropy">      0.02413386 </i>
    <i name="bandstr">     40.04071818 </i>
    <i name="atom">    161.07115403 </i>
    <i name="e_fr_energy">     -7.09112673 </i>
    <i name="e_wo_entrp">     -7.11526059 </i>
    <i name="e_0_energy">     -7.09917135 </i>
   </energy>
  </scstep>
  <scstep>
   <time name="dav">    0.26    0.07</time>
   <time name="total">    0.60    0.37</time>
   <energy>
    <i name="alphaZ">     -0.53451638 </i>
    <i name="ewald">   -221.91944734 </i>
    <i name="hartreedc">     -3.69338352 </i>
    <i name="XCdc">    -77.76388719 </i>
    <i name="pawpsdc">    116.62631544 </i>
    <i name="pawaedc">    -20.94069301 </i>
    <i name="eentropy">      0.02409614 </i>
    <i name="bandstr">     40.03923999 </i>
    <i name="atom">    161.07115403 </i>
    <i name="e_fr_energy">     -7.09112185 </i>
    <i name="e_wo_entrp">     -7.11521799 </i>
    <i name="e_0_energy">     -7.09915389 </i>
   </energy>
  </scstep>
  <structure>
   <crystal>
    <varray name="basis" >
     <v>       3.50000000       0.00000000       0.00000000 </v>
     <v>       0.00000000       3.50000000       0.00000000 </v>
     <v>       0.00000000       0.00000000       3.50000000 </v>
    </varray>
    <i name="volume">     42.87500000 </i>
    <varray name="rec_basis" >
     <v>       0.28571429       0.00000000       0.00000000 </v>
     <v>       0.00000000       0.28571429       0.00000000 </v>
     <v>       0.00000000       0.00000000       0.28571429 </v>
    </varray>
   </crystal>
   <varray name="positions" >
    <v>       0.25000000       0.25000000       0.00000000 </v>
    <v>       0.96804478       0.53195522       0.50000000 </v>
    <v>       0.53195522       0.96804478       0.50000000 </v>
   </varray>
  </structure>
  <varray name="forces" >
   <v>       0.00000000       0.00000000       0.00000000 </v>
   <v>      -0.00427864       0.00427864       0.00000000 </v>
   <v>       0.00427864      -0.00427864       0.00000000 </v>
  </varray>
  <varray name="stress" >
   <v>     568.10962218    -285.59180981       0.00000000 </v>
   <v>    -285.59180981     568.10962218       0.00000000 </v>
   <v>       0.00000000       0.00000000     693.69776027 </v>
  </varray>
  <energy>
   <i name="e_fr_energy">     -7.09112185 </i>
   <i name="e_wo_entrp">     -7.09915389 </i>
   <i name="e_0_energy">      0.02409614 </i>
  </energy>
  <time name="totalsc">    3.17    1.82</time>
  <eigenvalues>
   <array>
    <dimension dim="1">band</dimension>
    <dimension dim="2">kpoint</dimension>
    <dimension dim="3">spin</dimension>
    <field>eigene</field>
    <field>occ</field>
    <set>
     <set comment="spin 1">
      <set comment="kpoint 1">
       <r>   -0.6252    1.0000 </r>
       <r>    5.0706    1.0000 </r>
       <r>    5.2207    1.0000 </r>
       <r>    5.2828    1.0000 </r>
       <r>   10.5026   -0.0304 </r>
       <r>   10.7777   -0.0015 </r>
       <r>   11.4214    0.0000 </r>
       <r>   15.8805    0.0000 </r>
      </set>
      <set comment="kpoint 2">
       <r>   -0.6277    1.0000 </r>
       <r>    5.1011    1.0000 </r>
       <r>    5.2360    1.0000 </r>
       <r>    5.3221    1.0000 </r>
       <r>   10.0729    1.0320 </r>
       <r>   10.9150    0.0000 </r>
       <r>   11.3568    0.0000 </r>
       <r>   15.8632    0.0000 </r>
      </set>
     </set>
    </set>
   </array>
  </eigenvalues>
  <separator name="orbital magnetization" >
   <v name="MAGDIPOLOUT">      0.00000000      0.00000000      0.00000000</v>
  </separator>
 </calculation>
 <structure name="finalpos" >
  <crystal>
   <varray name="basis" >
    <v>       3.50000000       0.00000000       0.00000000 </v>
    <v>       0.00000000       3.50000000       0.00000000 </v>
    <v>       0.00000000       0.00000000       3.50000000 </v>
   </varray>
   <i name="volume">     42.87500000 </i>
   <varray name="rec_basis" >
    <v>       0.28571429       0.00000000       0.00000000 </v>
    <v>       0.00000000       0.28571429       0.00000000 </v>
    <v>       0.00000000       0.00000000       0.28571429 </v>
   </varray>
  </crystal>
  <varray name="positions" >
   <v>       0.25000000       0.25000000       0.00000000 </v>
   <v>       0.96804478       0.53195522       0.50000000 </v>
   <v>       0.53195522       0.96804478       0.50000000 </v>
  </varray>
 </structure>
</modeling>
