    8    8    1    2
  0.2226630E+02  0.5626600E-09  0.5626600E-09  0.5626600E-09  0.5000000E-15
  1.000000000000000E-004
  CAR 
 unknown system                          
   62    1   41
 
  0.2500000E+00  0.2500000E+00  0.2500000E+00  0.1000000E+01
   1      -11.189300    -11.189887
   2      -11.154664    -11.155268
   3      -11.154664    -11.155268
   4      -11.097959    -11.098584
   5      -11.057189    -11.057822
   6      -11.057188    -11.057822
   7      -11.048050    -11.048683
   8      -11.037488    -11.038137
   9      -11.037487    -11.038136
  10      -11.026808    -11.027427
  11      -11.008854    -11.009476
  12      -11.008853    -11.009474
  13      -10.983698    -10.984351
  14      -10.983697    -10.984350
  15      -10.970451    -10.971106
  16       -9.710644     -9.710764
  17       -7.917688     -7.917644
  18       -7.346962     -7.346897
  19       -7.346962     -7.346897
  20       -5.399758     -5.399755
  21       -2.748890     -2.748902
  22       -2.748890     -2.748901
  23       -1.346845     -1.346920
  24       -0.354187     -0.354138
  25       -0.106061     -0.106101
  26       -0.106061     -0.106101
  27        0.883276      0.883307
  28        0.883277      0.883307
  29        1.621549      1.621615
  30        2.600840      2.600876
  31        2.600840      2.600877
  32        3.587677      3.587675
  33        5.525402      5.525445
  34        5.525402      5.525445
  35        5.560385      5.560502
  36        6.557560      6.557442
  37        7.297855      7.297842
  38        7.297855      7.297842
  39        8.465413      8.465531
  40        8.465413      8.465531
  41        8.921109      8.921384
