       N       E                     dE             d eps       ncg     rms          rms(c)
DAV:   1     0.409173528435E+03    0.40917E+03   -0.20940E+04   180   0.166E+03
DAV:   2     0.275105236233E+02   -0.38166E+03   -0.36266E+03   172   0.440E+02
DAV:   3    -0.356137318152E+02   -0.63124E+02   -0.61322E+02   198   0.142E+02
DAV:   4    -0.387134890031E+02   -0.30998E+01   -0.30827E+01   200   0.356E+01
DAV:   5    -0.387783431219E+02   -0.64854E-01   -0.64796E-01   192   0.480E+00    0.133E+01
DAV:   6    -0.400470661247E+02   -0.12687E+01   -0.14540E+00   240   0.104E+01    0.506E+00
DAV:   7    -0.402295180154E+02   -0.18245E+00   -0.49484E-01   216   0.474E+00    0.207E+00
DAV:   8    -0.402051774670E+02    0.24341E-01   -0.93033E-02   191   0.136E+00    0.847E-01
DAV:   9    -0.402078448648E+02   -0.26674E-02   -0.23915E-02   192   0.695E-01    0.289E-01
DAV:  10    -0.402085020309E+02   -0.65717E-03   -0.26861E-03   214   0.380E-01    0.982E-02
DAV:  11    -0.402089200037E+02   -0.41797E-03   -0.51064E-04   160   0.175E-01    0.445E-02
DAV:  12    -0.402091119157E+02   -0.19191E-03   -0.22570E-04   160   0.861E-02    0.171E-02
DAV:  13    -0.402091431143E+02   -0.31199E-04   -0.37125E-05   104   0.376E-02
   1 F= -.40209143E+02 E0= -.40216874E+02  d E =0.231917E-01  mag=    -0.0005
