    3    3  191    1
  0.1429167E+02  0.3500000E-09  0.3500000E-09  0.3500000E-09  0.5000000E-15
  1.000000000000000E-004
  CAR 
 unknown system                          
    9    1    8
 
  0.2500000E+00  0.2500000E+00  0.2500000E+00  0.1000000E+01
   1       -0.842480
   2        4.914495
   3        5.150917
   4        5.150917
   5       10.522014
   6       10.522014
   7       11.421275
   8       16.286070
