   31   31  191    1
  0.1706119E+02  0.8087054E-09  0.8087054E-09  0.8087054E-09  0.5000000E-15
  1.000000000000000E-004
  CAR 
 unknown system                          
   92    2   62
 
  0.2500000E+00  0.2500000E+00  0.2500000E+00  0.5000000E+00
   1       -2.983382
   2       -1.960579
   3       -1.878740
   4       -1.642027
   5       -0.811838
   6       -0.760806
   7       -0.354075
   8        0.257060
   9        0.321675
  10        0.532532
  11        0.616192
  12        1.344913
  13        1.363888
  14        1.405809
  15        1.539253
  16        1.813939
  17        1.940172
  18        2.701084
  19        2.708810
  20        2.904801
  21        3.530369
  22        3.591542
  23        3.628648
  24        3.676913
  25        3.736061
  26        4.050469
  27        4.530835
  28        4.558182
  29        4.645083
  30        4.807434
  31        4.864862
  32        4.870594
  33        4.929230
  34        5.110693
  35        5.206580
  36        5.726943
  37        5.893201
  38        6.355829
  39        6.709993
  40        6.775577
  41        6.786539
  42        6.944250
  43        6.989510
  44        7.094025
  45        7.149629
  46        7.789594
  47        7.887774
  48        8.006640
  49        8.036175
  50        8.162246
  51        8.198442
  52        8.207211
  53        8.373839
  54        8.536888
  55        9.056740
  56        9.137245
  57        9.188034
  58        9.354522
  59        9.372009
  60        9.515055
  61        9.987775
  62       10.050888
 
 -0.2500000E+00  0.2500000E+00  0.2500000E+00  0.5000000E+00
   1       -2.986335
   2       -1.950818
   3       -1.815613
   4       -1.722376
   5       -0.825428
   6       -0.608959
   7       -0.548912
   8        0.261410
   9        0.398439
  10        0.441449
  11        0.699065
  12        1.393482
  13        1.428016
  14        1.492856
  15        1.493560
  16        1.768176
  17        1.842588
  18        2.621771
  19        2.773276
  20        2.839808
  21        3.537728
  22        3.587755
  23        3.633926
  24        3.681107
  25        3.811930
  26        3.963024
  27        4.598156
  28        4.651564
  29        4.677842
  30        4.698992
  31        4.716048
  32        4.949559
  33        4.973454
  34        5.059661
  35        5.175030
  36        5.746498
  37        6.117701
  38        6.177707
  39        6.706071
  40        6.746835
  41        6.917735
  42        7.023865
  43        7.032883
  44        7.070413
  45        7.141285
  46        7.838039
  47        7.956699
  48        7.995118
  49        8.066990
  50        8.149464
  51        8.171867
  52        8.188062
  53        8.216820
  54        8.264099
  55        9.095274
  56        9.146978
  57        9.272776
  58        9.378199
  59        9.408655
  60        9.488095
  61        9.987628
  62       10.083298
