 vasp.5.2.2 15Apr09 complex 
 executed on             LinuxIFC date 2014.04.24  10:57:51
 running on    1 nodes
 each image running on    1 nodes
 distr:  one band on    1 nodes,    1 groups


--------------------------------------------------------------------------------------------------------


 INCAR:
 POTCAR:   PAW_PBE Mg 05Jan2001                   
 POTCAR:   PAW_PBE Al 04Jan2001                   
 POTCAR:   PAW_PBE Mg 05Jan2001                   
   VRHFIN =Mg: s2p0                                                             
   LEXCH  = PE                                                                  
   EATOM  =    23.0029 eV,    1.6907 Ry                                         
                                                                                
   TITEL  = PAW_PBE Mg 05Jan2001                                                
   LULTRA =        F    use ultrasoft PP ?                                      
   IUNSCR =        1    unscreen: 0-lin 1-nonlin 2-no                           
   RPACOR =    2.000    partial core radius                                     
   POMASS =   24.305; ZVAL   =    2.000    mass and valenz                      
   RCORE  =    2.000    outmost cutoff radius                                   
   RWIGS  =    2.880; RWIGS  =    1.524    wigner-seitz radius (au A)           
   ENMAX  =  210.012; ENMIN  =  157.509 eV                                      
   ICORE  =        2    local potential                                         
   LCOR   =        T    correct aug charges                                     
   LPAW   =        T    paw PP                                                  
   EAUG   =  274.554                                                            
   DEXC   =    -.136                                                            
   RMAX   =    3.182    core radius for proj-oper                               
   RAUG   =    1.300    factor for augmentation sphere                          
   RDEP   =    2.025    radius for radial grids                                 
   QCUT   =   -3.929; QGAM   =    7.858    optimization parameters              
                                                                                
   Description                                                                  
     l     E      TYP  RCUT    TYP  RCUT                                        
     0   .000     23  2.000                                                     
     0  2.000     23  2.000                                                     
     1   .000     23  2.000                                                     
     1  2.000     23  2.000                                                     
     2   .000     23  2.000                                                     
  local pseudopotential read in
  partial core-charges read in
  atomic valenz-charges read in
  non local Contribution for L=           0  read in
    real space projection operators read in
  non local Contribution for L=           0  read in
    real space projection operators read in
  non local Contribution for L=           1  read in
    real space projection operators read in
  non local Contribution for L=           1  read in
    real space projection operators read in
    PAW grid and wavefunctions read in
 
   number of l-projection  operators is LMAX  =           4
   number of lm-projection operators is LMMAX =           8
 
 POTCAR:   PAW_PBE Al 04Jan2001                   
   VRHFIN =Al: s2p1                                                             
   LEXCH  = PE                                                                  
   EATOM  =    53.5387 eV,    3.9350 Ry                                         
                                                                                
   TITEL  = PAW_PBE Al 04Jan2001                                                
   LULTRA =        F    use ultrasoft PP ?                                      
   IUNSCR =        1    unscreen: 0-lin 1-nonlin 2-no                           
   RPACOR =    1.500    partial core radius                                     
   POMASS =   26.982; ZVAL   =    3.000    mass and valenz                      
   RCORE  =    1.900    outmost cutoff radius                                   
   RWIGS  =    2.650; RWIGS  =    1.402    wigner-seitz radius (au A)           
   ENMAX  =  240.300; ENMIN  =  180.225 eV                                      
   ICORE  =        2    local potential                                         
   LCOR   =        T    correct aug charges                                     
   LPAW   =        T    paw PP                                                  
   EAUG   =  291.052                                                            
   DEXC   =    -.041                                                            
   RMAX   =    2.974    core radius for proj-oper                               
   RAUG   =    1.300    factor for augmentation sphere                          
   RDEP   =    1.966    radius for radial grids                                 
   QCUT   =   -4.203; QGAM   =    8.405    optimization parameters              
                                                                                
   Description                                                                  
     l     E      TYP  RCUT    TYP  RCUT                                        
     0   .000     23  1.900                                                     
     0   .000     23  1.900                                                     
     1   .000     23  1.900                                                     
     1  1.000     23  1.900                                                     
     2   .000      7  1.900                                                     
  local pseudopotential read in
  partial core-charges read in
  atomic valenz-charges read in
  non local Contribution for L=           0  read in
    real space projection operators read in
  non local Contribution for L=           0  read in
    real space projection operators read in
  non local Contribution for L=           1  read in
    real space projection operators read in
  non local Contribution for L=           1  read in
    real space projection operators read in
    PAW grid and wavefunctions read in
 
   number of l-projection  operators is LMAX  =           4
   number of lm-projection operators is LMMAX =           8
 

 ----------------------------------------------------------------------------- 
|                                                                             |
|  ADVICE TO THIS USER RUNNING 'VASP/VAMP'   (HEAR YOUR MASTER'S VOICE ...):  |
|                                                                             |
|      You have a (more or less) 'large supercell' and for larger cells       |
|      it might be more efficient to use real space projection operators      |
|      So try LREAL= Auto  in the INCAR   file.                               |
|      Mind: If you want to do a very accurate calculations keep the          |
|      reciprocal projection scheme          (i.e. LREAL=.FALSE.)             |
|                                                                             |
 ----------------------------------------------------------------------------- 

 PAW_PBE Mg 05Jan2001                   :
 energy of atom  1       EATOM=  -23.0029
 kinetic energy error for atom=    0.0002 (will be added to EATOM!!)
 PAW_PBE Al 04Jan2001                   :
 energy of atom  2       EATOM=  -53.5387
 kinetic energy error for atom=    0.0011 (will be added to EATOM!!)
 
 
 POSCAR: Mg1 Al30                                
  positions in direct lattice
  No initial velocities read in
 exchange correlation table for  LEXCH =        8
   RHO(1)=    0.500       N(1)  =     2000
   RHO(2)=  100.500       N(2)  =     4000

 VTST: version 2.03d, (02/18/09)

 CHAIN: initializing optimizer
 
 OPT: Using VASP QUASI-newton optimizer
 CHAIN: Read ICHAIN            0
 CHAIN: Running the NEB
 NEB:          SPRING     -5.000000
 NEB:          LCLIMB      T
 NEB:     LTANGENTOLD      F
 NEB:           LDNEB      F
 NEB:        LDNEBORG      F
 NEB:          EFIRST      0.000000
 NEB:           ELAST      0.000000
 
 POSCAR: Mg1 Al30                                
  positions in direct lattice
  No initial velocities read in
 
 POSCAR: Mg1 Al30                                
  positions in direct lattice
  No initial velocities read in
 


--------------------------------------------------------------------------------------------------------


 ion  position               nearest neighbor table
   1  0.375  0.500  0.375-   9 2.79  16 2.79  19 2.79  27 2.79  26 3.17  14 3.17  13 3.17  25 3.17

   2  0.991  0.000  0.991-  22 2.66  15 2.73   8 2.73  20 2.73  28 2.73  18 2.78   7 2.78   5 2.89
                            11 2.89  12 2.89   4 2.89   3 2.99
   3  0.253  0.000  0.253-   9 2.78  16 2.78  19 2.78  27 2.78  21 2.80   5 2.87   4 2.87  11 2.87
                            12 2.87  17 2.95   6 2.95   2 2.99
   4  0.249  0.248  0.999-  18 2.78  20 2.84   5 2.86  24 2.86   3 2.87   6 2.88   9 2.89   2 2.89
                            26 2.89  10 2.90  13 2.92
   5  0.999  0.248  0.249-   7 2.78   8 2.84   4 2.86  23 2.86   3 2.87  17 2.88  19 2.89   2 2.89
                            14 2.89  10 2.90  25 2.92
   6  0.504  0.000  0.989-   9 2.66  16 2.66  24 2.78  31 2.78  22 2.78  18 2.78  15 2.80   8 2.80
                             4 2.88  11 2.88   3 2.95   7 2.95
   7  0.761  0.000  0.246-   9 2.66  16 2.66  12 2.78   5 2.78   2 2.78  17 2.78   8 2.80  15 2.80
                            23 2.88  30 2.88  21 2.95   6 2.95
   8  0.753  0.239  0.997-   9 2.72  22 2.73   2 2.73  20 2.79   6 2.80   7 2.80  24 2.84   5 2.84
                            29 2.87  10 2.87  13 2.90  14 2.90
   9  0.516  0.219  0.234-   7 2.66   6 2.66   8 2.72  21 2.78   3 2.78   1 2.79  23 2.89   4 2.89
                            14 2.93  13 2.93  19 3.23
  10  0.994  0.500  0.994-  29 2.71  26 2.85  14 2.85  28 2.87  20 2.87   8 2.87  15 2.87  11 2.90
                            12 2.90   5 2.90   4 2.90
  11  0.249  0.752  0.999-  18 2.78  28 2.84  12 2.86  31 2.86   3 2.87   6 2.88  16 2.89   2 2.89
                            26 2.89  10 2.90  13 2.92
  12  0.999  0.752  0.249-   7 2.78  15 2.84  11 2.86  30 2.86   3 2.87  17 2.88  27 2.89   2 2.89
                            14 2.89  10 2.90  25 2.92
  13  0.508  0.500  0.006-  14 2.70  29 2.85  24 2.89  31 2.89  15 2.90   8 2.90  11 2.92   4 2.92
                            16 2.93   9 2.93  26 3.02   1 3.17
  14  0.744  0.500  0.242-  13 2.70  10 2.85  12 2.89   5 2.89   8 2.90  15 2.90  23 2.92  30 2.92
                             9 2.93  16 2.93  25 3.02   1 3.17
  15  0.753  0.761  0.997-  16 2.72  22 2.73   2 2.73  28 2.79   6 2.80   7 2.80  31 2.84  12 2.84
                            29 2.87  10 2.87  13 2.90  14 2.90
  16  0.516  0.781  0.234-   7 2.66   6 2.66  15 2.72  21 2.78   3 2.78   1 2.79  30 2.89  11 2.89
                            14 2.93  13 2.93  27 3.23
  17  0.989  0.000  0.504-  19 2.66  27 2.66  23 2.78  30 2.78  22 2.78   7 2.78  28 2.80  20 2.80
                            12 2.88   5 2.88   3 2.95  18 2.95
  18  0.246  0.000  0.761-  19 2.66  27 2.66   4 2.78  11 2.78   2 2.78   6 2.78  20 2.80  28 2.80
                            24 2.88  31 2.88  21 2.95  17 2.95
  19  0.234  0.219  0.516-  18 2.66  17 2.66  20 2.72  21 2.78   3 2.78   1 2.79  24 2.89   5 2.89
                            26 2.93  25 2.93   9 3.23
  20  0.997  0.239  0.753-  19 2.72  22 2.73   2 2.73   8 2.79  17 2.80  18 2.80  23 2.84   4 2.84
                            29 2.87  10 2.87  25 2.90  26 2.90
  21  0.497  0.000  0.497-   9 2.78  16 2.78  19 2.78  27 2.78   3 2.80  24 2.87  23 2.87  30 2.87
                            31 2.87   7 2.95  18 2.95  22 2.99
  22  0.759  0.000  0.759-   2 2.66   8 2.73  15 2.73  20 2.73  28 2.73   6 2.78  17 2.78  24 2.89
                            23 2.89  30 2.89  31 2.89  21 2.99
  23  0.751  0.248  0.501-  17 2.78  20 2.84  24 2.86   5 2.86  21 2.87   7 2.88   9 2.89  22 2.89
                            25 2.89  29 2.90  14 2.92
  24  0.501  0.248  0.751-   6 2.78   8 2.84  23 2.86   4 2.86  21 2.87  18 2.88  19 2.89  22 2.89
                            13 2.89  29 2.90  26 2.92
  25  0.006  0.500  0.508-  26 2.70  29 2.85  23 2.89  30 2.89  20 2.90  28 2.90   5 2.92  12 2.92
                            27 2.93  19 2.93  14 3.02   1 3.17
  26  0.242  0.500  0.744-  25 2.70  10 2.85  11 2.89   4 2.89  20 2.90  28 2.90  24 2.92  31 2.92
                            19 2.93  27 2.93  13 3.02   1 3.17
  27  0.234  0.781  0.516-  18 2.66  17 2.66  28 2.72  21 2.78   3 2.78   1 2.79  31 2.89  12 2.89
                            26 2.93  25 2.93  16 3.23
  28  0.997  0.761  0.753-  27 2.72  22 2.73   2 2.73  15 2.79  17 2.80  18 2.80  30 2.84  11 2.84
                            29 2.87  10 2.87  25 2.90  26 2.90
  29  0.756  0.500  0.756-  10 2.71  13 2.85  25 2.85  20 2.87  28 2.87  15 2.87   8 2.87  23 2.90
                            24 2.90  30 2.90  31 2.90
  30  0.751  0.752  0.501-  17 2.78  28 2.84  31 2.86  12 2.86  21 2.87   7 2.88  16 2.89  22 2.89
                            25 2.89  29 2.90  14 2.92
  31  0.501  0.752  0.751-   6 2.78  15 2.84  30 2.86  11 2.86  21 2.87  18 2.88  27 2.89  22 2.89
                            13 2.89  29 2.90  26 2.92
 
  LATTYP: Found a simple cubic cell.
 ALAT       =     8.0870540000
  
  Lattice vectors:
  
 A1 = (   8.0870540000,   0.0000000000,   0.0000000000)
 A2 = (   0.0000000000,   8.0870540000,   0.0000000000)
 A3 = (   0.0000000000,   0.0000000000,   8.0870540000)
 Subroutine PRICEL returns:
 Original cell was already a primitive cell.
 

Analysis of symmetry for initial positions (statically):

 Routine SETGRP: Setting up the symmetry group for a 
 simple cubic supercell.


 Subroutine GETGRP returns: Found  4 space group operations
 (whereof  4 operations were pure point group operations)
 out of a pool of 48 trial point group operations.


The static configuration has the point symmetry C_2v.

Analysis of symmetry for dynamics (positions and initial velocities):

 Subroutine DYNSYM returns: Found  4 space group operations
 (whereof  4 operations were pure point group operations)
 out of a pool of  4 trial space group operations
 (whereof  4 operations were pure point group operations)
 and found also     1 'primitive' translations


The dynamic configuration has the point symmetry C_2v.
 
 
 KPOINTS: Automatic kpoint scheme                 

Automatic generation of k-mesh.
 
 Subroutine IBZKPT returns following result:
 ===========================================
 
 Found      2 irreducible k-points:
 
 Following reciprocal coordinates:
            Coordinates               Weight
  0.250000  0.250000  0.250000      4.000000
 -0.250000  0.250000  0.250000      4.000000
 
 Following cartesian coordinates:
            Coordinates               Weight
  0.030914  0.030914  0.030914      4.000000
 -0.030914  0.030914  0.030914      4.000000
 


--------------------------------------------------------------------------------------------------------




 Dimension of arrays:
   k-points           NKPTS =      2   k-points in BZ     NKDIM =      2   number of bands    NBANDS=     62
   number of dos      NEDOS =    301   number of ions     NIONS =     31
   non local maximal  LDIM  =      4   non local SUM 2l+1 LMDIM =      8
   total plane-waves  NPLWV = 110592
   max r-space proj   IRMAX =      1   max aug-charges    IRDMAX=   9081
   dimension x,y,z NGX =    48 NGY =   48 NGZ =   48
   dimension x,y,z NGXF=    96 NGYF=   96 NGZF=   96
   support grid    NGXF=    96 NGYF=   96 NGZF=   96
   ions per type =               1  30
 NGX,Y,Z   is equivalent  to a cutoff of   9.87,  9.87,  9.87 a.u.
 NGXF,Y,Z  is equivalent  to a cutoff of  19.73, 19.73, 19.73 a.u.


 I would recommend the setting:
   dimension x,y,z NGX =    46 NGY =   46 NGZ =   46
 SYSTEM =  unknown system                          
 POSCAR =  Mg1 Al30                                

 Startparameter for this run:
   NWRITE =      2    write-flag & timer
   PREC   = accura    medium, high low
   ISTART =      0    job   : 0-new  1-cont  2-samecut
   ICHARG =      2    charge: 1-file 2-atom 10-const
   ISPIN  =      1    spin polarized calculation?
   LNONCOLLINEAR =      F non collinear calculations
   LSORBIT =      F    spin-orbit coupling
   INIWAV =      1    electr: 0-lowe 1-rand  2-diag
   LASPH  =      F    aspherical Exc in radial PAW
   METAGGA=      F    non-selfconsistent MetaGGA calc.

 Electronic Relaxation 1
   ENCUT  =  300.0 eV  22.05 Ry    4.70 a.u.  11.42 11.42 11.42*2*pi/ulx,y,z
   ENINI  =  300.0     initial cutoff
   ENAUG  =  291.1 eV  augmentation charge cutoff
   NELM   =     60;   NELMIN=  2; NELMDL=-12     # of ELM steps 
   EDIFF  = 0.1E-03   stopping-criterion for ELM
   LREAL  =      F    real-space projection
   LCOMPAT=      F    compatible to vasp.4.4
   LREAL_COMPAT= F    compatible to vasp.4.5.1-3
   GGA_COMPAT  = T    GGA compatible to vasp.4.4-vasp.4.6
   LMAXPAW     = -100 max onsite density
   LMAXMIX     =    2 max onsite mixed and CHGCAR
   VOSKOWN=      0    Vosko Wilk Nusair interpolation
   ROPT   =    0.00000   0.00000
 Ionic relaxation
   EDIFFG = 0.5E-01   stopping-criterion for IOM
   NSW    =    191    number of steps for IOM
   NBLOCK =      1;   KBLOCK =    191    inner block; outer block 
   IBRION =      1    ionic relax: 0-MD 1-quasi-New 2-CG
   NFREE  =      0    steps in history (QN), initial steepest desc. (CG)
   ISIF   =      2    stress and relaxation
   IWAVPR =     11    prediction:  0-non 1-charg 2-wave 3-comb
   ISYM   =      2    0-nonsym 1-usesym 2-fastsym
   LCORR  =      T    Harris-Foulkes like correction to forces

   POTIM  = 0.5000    time-step for ionic-motion
   TEIN   =    0.0    initial temperature
   TEBEG  =    0.0;   TEEND  =   0.0 temperature during run
   SMASS  =  -3.00    Nose mass-parameter (am)
   estimated Nose-frequenzy (Omega)   =  0.10E-29 period in steps =****** mass=  -0.149E-26a.u.
   NPACO  =    256;   APACO  = 16.0  distance and # of slots for P.C.
   PSTRESS=    0.0 pullay stress

  Mass of Ions in am
   POMASS =  24.30 26.98
  Ionic Valenz
   ZVAL   =   2.00  3.00
  Atomic Wigner-Seitz radii
   RWIGS  =  -1.00 -1.00
   NELECT =      92.0000    total number of electrons
   NUPDOWN=      -1.0000    fix difference up-down

 DOS related values:
   EMIN   =  10.00;   EMAX   =-10.00  energy-range for DOS
   EFERMI =   0.00
   ISMEAR =     1;   SIGMA  =   0.20  broadening in eV -4-tet -1-fermi 0-gaus

 Electronic relaxation 2 (details)
   IALGO  =     48    algorithm
   LDIAG  =      T    sub-space diagonalisation
   IMIX   =      4    mixing-type and parameters
     AMIX     =   0.40;   BMIX     =  1.00
     AMIX_MAG =   1.60;   BMIX_MAG =  1.00
     AMIN     =   0.10
     WC   =   100.;   INIMIX=   1;  MIXPRE=   1

 Intra band minimization:
   WEIMIN = 0.0010     energy-eigenvalue tresh-hold
   EBREAK =  0.40E-06  absolut break condition
   DEPER  =   0.30     relativ break condition  

   TIME   =   0.40     timestep for ELM

  volume/ion in A,a.u.               =      17.06       115.13
  Fermi-wavevector in a.u.,A,eV,Ry     =   0.913862  1.726948 11.362811  0.835143
  Thomas-Fermi vector in A             =   2.038422
 
 Write flags
   LWAVE  =      F    write WAVECAR
   LCHARG =      F    write CHGCAR
   LVTOT  =      F    write LOCPOT, local potential
   LELF   =      F    write electronic localiz. function (ELF)
   LORBIT =      0    0 simple, 1 ext, 2 COOP (PROOUT)


 Dipole corrections
   LMONO  =      F    monopole corrections only (constant potential shift)
   LDIPOL =      F    correct potential (dipole corrections)
   IDIPOL =      0    1-x, 2-y, 3-z, 4-all directions 
   EPSILON=  1.0000000 bulk dielectric constant

 Exchange correlation treatment:
   GGA     =    --    GGA type
   LEXCH   =     8    internal setting for exchange type
   VOSKOWN=      0    Vosko Wilk Nusair interpolation
   LHFCALC =     F    Hartree Fock is set to
   LHFONE  =     F    Hartree Fock one center treatment
   AEXX    =    0.0000 exact exchange contribution

 Linear response parameters
   LEPSILON=     F    determine dielectric tensor
   LRPA    =     F    only Hartree local field effects (RPA)
   LNABLA  =     F    use nabla operator in PAW spheres
   LVEL    =     F    velocity operator in full k-point grid
   LINTERFAST=   F  fast interpolation
   KINTER  =     0    interpolate to denser k-point grid
   CSHIFT  =0.1000    complex shift for real part using Kramers Kronig
   OMEGAMAX=  -1.0    maximum frequency

 Orbital magnetization related:
   ORBITALMAG=     F  switch on orbital magnetization
   LCHIMAG   =     F  perturbation theory with respect to B field



--------------------------------------------------------------------------------------------------------


 quasi-Newton-method for relaxation of ions
 charge density and potential will be updated during run
 non-spin polarized calculation
 RMM-DIIS sequential band-by-band
 perform sub-space diagonalisation
    before iterative eigenvector-optimisation
 modified Broyden-mixing scheme, WC =      100.0
 initial mixing is a Kerker type mixing with AMIX =  0.4000 and BMIX =      1.0000
 Hartree-type preconditioning will be used
 using additional bands           16
 reciprocal scheme for non local part
 use partial core corrections
 calculate Harris-corrections to forces 
   (improved forces if not selfconsistent)
 use gradient corrections 
 use of overlap-Matrix (Vanderbilt PP)
 Methfessel and Paxton  Order N= 1 SIGMA  =   0.20


--------------------------------------------------------------------------------------------------------


  energy-cutoff  :      300.00
  volume of cell :      528.90
      direct lattice vectors                 reciprocal lattice vectors
     8.087054000  0.000000000  0.000000000     0.123654423  0.000000000  0.000000000
     0.000000000  8.087054000  0.000000000     0.000000000  0.123654423  0.000000000
     0.000000000  0.000000000  8.087054000     0.000000000  0.000000000  0.123654423

  length of vectors
     8.087054000  8.087054000  8.087054000     0.123654423  0.123654423  0.123654423


 
 k-points in units of 2pi/SCALE and weight: Automatic kpoint scheme                 
   0.03091361  0.03091361  0.03091361       0.500
  -0.03091361  0.03091361  0.03091361       0.500
 
 k-points in reciprocal lattice and weights: Automatic kpoint scheme                 
   0.25000000  0.25000000  0.25000000       0.500
  -0.25000000  0.25000000  0.25000000       0.500
 
 position of ions in fractional coordinates (direct lattice) 
   0.37500600  0.50000000  0.37500600
   0.99120900  0.00000000  0.99120900
   0.25277000  0.00000000  0.25277000
   0.24850400  0.24822500  0.99851900
   0.99851900  0.24822500  0.24850400
   0.50369300  0.00000000  0.98874900
   0.76124800  0.00000000  0.24631000
   0.75322400  0.23902300  0.99677200
   0.51622300  0.21917600  0.23377900
   0.99352000  0.50000000  0.99352000
   0.24850400  0.75177500  0.99851900
   0.99851900  0.75177500  0.24850400
   0.50794300  0.50000000  0.00576200
   0.74423400  0.50000000  0.24206200
   0.75322400  0.76097700  0.99677200
   0.51622300  0.78082400  0.23377900
   0.98874900  0.00000000  0.50369300
   0.24631000  0.00000000  0.76124800
   0.23377900  0.21917600  0.51622300
   0.99677200  0.23902300  0.75322400
   0.49723100  0.00000000  0.49723100
   0.75879100  0.00000000  0.75879100
   0.75148400  0.24822500  0.50149400
   0.50149400  0.24822500  0.75148400
   0.00576200  0.50000000  0.50794300
   0.24206200  0.50000000  0.74423400
   0.23377900  0.78082400  0.51622300
   0.99677200  0.76097700  0.75322400
   0.75648400  0.50000000  0.75648400
   0.75148400  0.75177500  0.50149400
   0.50149400  0.75177500  0.75148400
 
 position of ions in cartesian coordinates  (Angst):
   3.03269377  4.04352700  3.03269377
   8.01596071  0.00000000  8.01596071
   2.04416464  0.00000000  2.04416464
   2.00966527  2.00740898  8.07507707
   8.07507707  2.00740898  2.00966527
   4.07339249  0.00000000  7.99606656
   6.15625368  0.00000000  1.99192227
   6.09136316  1.93299191  8.06094899
   4.17472328  1.77248815  1.89058340
   8.03464989  4.04352700  8.03464989
   2.00966527  6.07964502  8.07507707
   8.07507707  6.07964502  2.00966527
   4.10776247  4.04352700  0.04659761
   6.01866055  4.04352700  1.95756847
   6.09136316  6.15406209  8.06094899
   4.17472328  6.31456585  1.89058340
   7.99606656  0.00000000  4.07339249
   1.99192227  0.00000000  6.15625368
   1.89058340  1.77248815  4.17472328
   8.06094899  1.93299191  6.09136316
   4.02113395  0.00000000  4.02113395
   6.13638379  0.00000000  6.13638379
   6.07729169  2.00740898  4.05560906
   4.05560906  2.00740898  6.07729169
   0.04659761  4.04352700  4.10776247
   1.95756847  4.04352700  6.01866055
   1.89058340  6.31456585  4.17472328
   8.06094899  6.15406209  6.09136316
   6.11772696  4.04352700  6.11772696
   6.07729169  6.07964502  4.05560906
   4.05560906  6.07964502  6.07729169
 


--------------------------------------------------------------------------------------------------------


 k-point  1 :  0.25000.25000.2500  plane waves:    6238
 k-point  2 :  -.25000.25000.2500  plane waves:    6238

 maximum and minimum number of plane-waves per node :    6238   6238

 maximum number of plane-waves:    6238
 maximal index in each direction: 
   IXMAX= 11   IYMAX= 11   IZMAX= 11
   IXMIN=-11   IYMIN=-11   IZMIN=-11

 NGX is ok and might be reduce to  46
 NGY is ok and might be reduce to  46
 NGZ is ok and might be reduce to  46

 serial   3D FFT for wavefunctions
 parallel 3D FFT for charge:
    minimum data exchange during FFTs selected (reduces bandwidth)


 total amount of memory used by VASP on root node 133132. kBytes
========================================================================

   base      :    30000. kBytes
   nonl-proj :     4690. kBytes
   fftplans  :    30736. kBytes
   grid      :    54743. kBytes
   one-center:       95. kBytes
   wavefun   :    12868. kBytes
 
 Broyden mixing: mesh for mixing (old mesh)
   NGX = 23   NGY = 23   NGZ = 23
  (NGX  = 96   NGY  = 96   NGZ  = 96)
  gives a total of  12167 points

 initial charge density was supplied:
 charge density of overlapping atoms calculated
 number of electron   92.0000000 magnetization 
 keeping initial charge density in first step


--------------------------------------------------------------------------------------------------------


 Maximum index for augmentation-charges         8601 (set IRDMAX)


--------------------------------------------------------------------------------------------------------


 First call to EWALD:  gamma=   0.219
 Maximum number of real-space cells 3x 3x 3
 Maximum number of reciprocal cells 3x 3x 3

    FEWALD:  cpu time    0.07: real time    0.02
   RESPFUN:  cpu time    0.00: real time    0.00


----------------------------------------- Iteration    1(   1)  ---------------------------------------


    POTLOK:  cpu time    2.36: real time    2.32
    SETDIJ:  cpu time    0.15: real time    0.15
    EDDIAG:  cpu time    4.91: real time    3.21
  RMM-DIIS:  cpu time   23.19: real time    7.52
    ORTHCH:  cpu time    0.35: real time    0.09
       DOS:  cpu time    0.00: real time    0.00
    --------------------------------------------
      LOOP:  cpu time   30.97: real time   13.28

 eigenvalue-minimisations  :   124
 total energy-change (2. order) : 0.3032847E+03  (-0.1703316E+04)
 number of electron   92.0000000 magnetization 
 augmentation part    92.0000000 magnetization 

 Free energy of the ion-electron system (eV)
  ---------------------------------------------------
  alpha Z        PSCENC =        -7.38312591
  Ewald energy   TEWEN  =     -2151.72325042
  -1/2 Hartree   DENC   =       -46.23790440
  -exchange  EXHF       =         0.00000000
  -V(xc)+E(xc)   XCENC  =      -795.98944826
  PAW double counting   =      1078.21717227     -108.50372521
  entropy T*S    EENTRO =        -0.04105993
  eigenvalues    EBANDS =       705.81464302
  atomic energy  EATOM  =      1629.13144109
  ---------------------------------------------------
  free energy    TOTEN  =       303.28474225 eV

  energy without entropy =      303.32580218  energy(sigma->0) =      303.29842889


--------------------------------------------------------------------------------------------------------




----------------------------------------- Iteration    1(   2)  ---------------------------------------


    EDDIAG:  cpu time    4.75: real time    3.14
  RMM-DIIS:  cpu time   23.63: real time    7.79
    ORTHCH:  cpu time    0.34: real time    0.08
       DOS:  cpu time    0.00: real time    0.00
    --------------------------------------------
      LOOP:  cpu time   28.72: real time   11.02

 eigenvalue-minimisations  :   124
 total energy-change (2. order) :-0.3147085E+03  (-0.3109055E+03)
 number of electron   92.0000000 magnetization 
 augmentation part    92.0000000 magnetization 

 Free energy of the ion-electron system (eV)
  ---------------------------------------------------
  alpha Z        PSCENC =        -7.38312591
  Ewald energy   TEWEN  =     -2151.72325042
  -1/2 Hartree   DENC   =       -46.23790440
  -exchange  EXHF       =         0.00000000
  -V(xc)+E(xc)   XCENC  =      -795.98944826
  PAW double counting   =      1078.21717227     -108.50372521
  entropy T*S    EENTRO =        -0.05616442
  eigenvalues    EBANDS =       391.12123309
  atomic energy  EATOM  =      1629.13144109
  ---------------------------------------------------
  free energy    TOTEN  =       -11.42377217 eV

  energy without entropy =      -11.36760775  energy(sigma->0) =      -11.40505069


--------------------------------------------------------------------------------------------------------




----------------------------------------- Iteration    1(   3)  ---------------------------------------


    EDDIAG:  cpu time    4.56: real time    3.10
  RMM-DIIS:  cpu time   22.79: real time    7.44
    ORTHCH:  cpu time    0.33: real time    0.08
       DOS:  cpu time    0.01: real time    0.00
    --------------------------------------------
      LOOP:  cpu time   27.68: real time   10.63

 eigenvalue-minimisations  :   124
 total energy-change (2. order) :-0.7428858E+02  (-0.7688999E+02)
 number of electron   92.0000000 magnetization 
 augmentation part    92.0000000 magnetization 

 Free energy of the ion-electron system (eV)
  ---------------------------------------------------
  alpha Z        PSCENC =        -7.38312591
  Ewald energy   TEWEN  =     -2151.72325042
  -1/2 Hartree   DENC   =       -46.23790440
  -exchange  EXHF       =         0.00000000
  -V(xc)+E(xc)   XCENC  =      -795.98944826
  PAW double counting   =      1078.21717227     -108.50372521
  entropy T*S    EENTRO =        -0.10118722
  eigenvalues    EBANDS =       316.87767940
  atomic energy  EATOM  =      1629.13144109
  ---------------------------------------------------
  free energy    TOTEN  =       -85.71234866 eV

  energy without entropy =      -85.61116144  energy(sigma->0) =      -85.67861959


--------------------------------------------------------------------------------------------------------




----------------------------------------- Iteration    1(   4)  ---------------------------------------


    EDDIAG:  cpu time    4.70: real time    3.12
  RMM-DIIS:  cpu time   22.90: real time    7.40
    ORTHCH:  cpu time    0.36: real time    0.09
       DOS:  cpu time    0.01: real time    0.00
    --------------------------------------------
      LOOP:  cpu time   27.97: real time   10.62

 eigenvalue-minimisations  :   124
 total energy-change (2. order) :-0.1650310E+02  (-0.1718409E+02)
 number of electron   92.0000000 magnetization 
 augmentation part    92.0000000 magnetization 

 Free energy of the ion-electron system (eV)
  ---------------------------------------------------
  alpha Z        PSCENC =        -7.38312591
  Ewald energy   TEWEN  =     -2151.72325042
  -1/2 Hartree   DENC   =       -46.23790440
  -exchange  EXHF       =         0.00000000
  -V(xc)+E(xc)   XCENC  =      -795.98944826
  PAW double counting   =      1078.21717227     -108.50372521
  entropy T*S    EENTRO =        -0.01545669
  eigenvalues    EBANDS =       300.28885339
  atomic energy  EATOM  =      1629.13144109
  ---------------------------------------------------
  free energy    TOTEN  =      -102.21544414 eV

  energy without entropy =     -102.19998745  energy(sigma->0) =     -102.21029191


--------------------------------------------------------------------------------------------------------




----------------------------------------- Iteration    1(   5)  ---------------------------------------


    EDDIAG:  cpu time    4.74: real time    3.14
  RMM-DIIS:  cpu time   22.42: real time    7.34
    ORTHCH:  cpu time    0.36: real time    0.09
       DOS:  cpu time    0.01: real time    0.00
    --------------------------------------------
      LOOP:  cpu time   27.52: real time   10.56

 eigenvalue-minimisations  :   124
 total energy-change (2. order) :-0.6292099E+01  (-0.5377963E+01)
 number of electron   92.0000000 magnetization 
 augmentation part    92.0000000 magnetization 

 Free energy of the ion-electron system (eV)
  ---------------------------------------------------
  alpha Z        PSCENC =        -7.38312591
  Ewald energy   TEWEN  =     -2151.72325042
  -1/2 Hartree   DENC   =       -46.23790440
  -exchange  EXHF       =         0.00000000
  -V(xc)+E(xc)   XCENC  =      -795.98944826
  PAW double counting   =      1078.21717227     -108.50372521
  entropy T*S    EENTRO =        -0.06547840
  eigenvalues    EBANDS =       294.04677608
  atomic energy  EATOM  =      1629.13144109
  ---------------------------------------------------
  free energy    TOTEN  =      -108.50754316 eV

  energy without entropy =     -108.44206476  energy(sigma->0) =     -108.48571703


--------------------------------------------------------------------------------------------------------




----------------------------------------- Iteration    1(   6)  ---------------------------------------


    EDDIAG:  cpu time    4.80: real time    3.14
  RMM-DIIS:  cpu time   22.23: real time    7.34
    ORTHCH:  cpu time    0.34: real time    0.08
       DOS:  cpu time    0.01: real time    0.00
    --------------------------------------------
      LOOP:  cpu time   27.37: real time   10.57

 eigenvalue-minimisations  :   124
 total energy-change (2. order) :-0.2602072E+01  (-0.2125355E+01)
 number of electron   92.0000000 magnetization 
 augmentation part    92.0000000 magnetization 

 Free energy of the ion-electron system (eV)
  ---------------------------------------------------
  alpha Z        PSCENC =        -7.38312591
  Ewald energy   TEWEN  =     -2151.72325042
  -1/2 Hartree   DENC   =       -46.23790440
  -exchange  EXHF       =         0.00000000
  -V(xc)+E(xc)   XCENC  =      -795.98944826
  PAW double counting   =      1078.21717227     -108.50372521
  entropy T*S    EENTRO =        -0.06866059
  eigenvalues    EBANDS =       291.44788593
  atomic energy  EATOM  =      1629.13144109
  ---------------------------------------------------
  free energy    TOTEN  =      -111.10961551 eV

  energy without entropy =     -111.04095491  energy(sigma->0) =     -111.08672864


--------------------------------------------------------------------------------------------------------




----------------------------------------- Iteration    1(   7)  ---------------------------------------


    EDDIAG:  cpu time    4.77: real time    3.15
  RMM-DIIS:  cpu time   23.01: real time    7.43
    ORTHCH:  cpu time    0.35: real time    0.09
       DOS:  cpu time    0.01: real time    0.00
    --------------------------------------------
      LOOP:  cpu time   28.15: real time   10.67

 eigenvalue-minimisations  :   124
 total energy-change (2. order) :-0.1079739E+01  (-0.9161438E+00)
 number of electron   92.0000000 magnetization 
 augmentation part    92.0000000 magnetization 

 Free energy of the ion-electron system (eV)
  ---------------------------------------------------
  alpha Z        PSCENC =        -7.38312591
  Ewald energy   TEWEN  =     -2151.72325042
  -1/2 Hartree   DENC   =       -46.23790440
  -exchange  EXHF       =         0.00000000
  -V(xc)+E(xc)   XCENC  =      -795.98944826
  PAW double counting   =      1078.21717227     -108.50372521
  entropy T*S    EENTRO =        -0.04172744
  eigenvalues    EBANDS =       290.34121377
  atomic energy  EATOM  =      1629.13144109
  ---------------------------------------------------
  free energy    TOTEN  =      -112.18935451 eV

  energy without entropy =     -112.14762707  energy(sigma->0) =     -112.17544536


--------------------------------------------------------------------------------------------------------




----------------------------------------- Iteration    1(   8)  ---------------------------------------


    EDDIAG:  cpu time    4.57: real time    3.10
  RMM-DIIS:  cpu time   22.88: real time    7.41
    ORTHCH:  cpu time    0.35: real time    0.09
       DOS:  cpu time    0.01: real time    0.00
    --------------------------------------------
      LOOP:  cpu time   27.81: real time   10.60

 eigenvalue-minimisations  :   124
 total energy-change (2. order) :-0.4882219E+00  (-0.4208991E+00)
 number of electron   92.0000000 magnetization 
 augmentation part    92.0000000 magnetization 

 Free energy of the ion-electron system (eV)
  ---------------------------------------------------
  alpha Z        PSCENC =        -7.38312591
  Ewald energy   TEWEN  =     -2151.72325042
  -1/2 Hartree   DENC   =       -46.23790440
  -exchange  EXHF       =         0.00000000
  -V(xc)+E(xc)   XCENC  =      -795.98944826
  PAW double counting   =      1078.21717227     -108.50372521
  entropy T*S    EENTRO =        -0.04077751
  eigenvalues    EBANDS =       289.85204194
  atomic energy  EATOM  =      1629.13144109
  ---------------------------------------------------
  free energy    TOTEN  =      -112.67757641 eV

  energy without entropy =     -112.63679890  energy(sigma->0) =     -112.66398391


--------------------------------------------------------------------------------------------------------




----------------------------------------- Iteration    1(   9)  ---------------------------------------


    EDDIAG:  cpu time    4.71: real time    3.12
  RMM-DIIS:  cpu time   53.36: real time   15.43
    ORTHCH:  cpu time    0.33: real time    0.08
       DOS:  cpu time    0.01: real time    0.00
    --------------------------------------------
      LOOP:  cpu time   58.41: real time   18.64

 eigenvalue-minimisations  :   298
 total energy-change (2. order) :-0.4156253E+00  (-0.3871243E+00)
 number of electron   92.0000000 magnetization 
 augmentation part    92.0000000 magnetization 

 Free energy of the ion-electron system (eV)
  ---------------------------------------------------
  alpha Z        PSCENC =        -7.38312591
  Ewald energy   TEWEN  =     -2151.72325042
  -1/2 Hartree   DENC   =       -46.23790440
  -exchange  EXHF       =         0.00000000
  -V(xc)+E(xc)   XCENC  =      -795.98944826
  PAW double counting   =      1078.21717227     -108.50372521
  entropy T*S    EENTRO =        -0.03758566
  eigenvalues    EBANDS =       289.43322483
  atomic energy  EATOM  =      1629.13144109
  ---------------------------------------------------
  free energy    TOTEN  =      -113.09320167 eV

  energy without entropy =     -113.05561602  energy(sigma->0) =     -113.08067312


--------------------------------------------------------------------------------------------------------




----------------------------------------- Iteration    1(  10)  ---------------------------------------


    EDDIAG:  cpu time    4.68: real time    3.12
  RMM-DIIS:  cpu time   50.02: real time   14.53
    ORTHCH:  cpu time    0.40: real time    0.10
       DOS:  cpu time    0.01: real time    0.00
    --------------------------------------------
      LOOP:  cpu time   55.10: real time   17.75

 eigenvalue-minimisations  :   276
 total energy-change (2. order) :-0.5936288E-01  (-0.3462153E-01)
 number of electron   92.0000000 magnetization 
 augmentation part    92.0000000 magnetization 

 Free energy of the ion-electron system (eV)
  ---------------------------------------------------
  alpha Z        PSCENC =        -7.38312591
  Ewald energy   TEWEN  =     -2151.72325042
  -1/2 Hartree   DENC   =       -46.23790440
  -exchange  EXHF       =         0.00000000
  -V(xc)+E(xc)   XCENC  =      -795.98944826
  PAW double counting   =      1078.21717227     -108.50372521
  entropy T*S    EENTRO =        -0.03882058
  eigenvalues    EBANDS =       289.37509687
  atomic energy  EATOM  =      1629.13144109
  ---------------------------------------------------
  free energy    TOTEN  =      -113.15256455 eV

  energy without entropy =     -113.11374397  energy(sigma->0) =     -113.13962436


--------------------------------------------------------------------------------------------------------




----------------------------------------- Iteration    1(  11)  ---------------------------------------


    EDDIAG:  cpu time    4.69: real time    3.13
  RMM-DIIS:  cpu time   41.12: real time   12.13
    ORTHCH:  cpu time    0.34: real time    0.08
       DOS:  cpu time    0.01: real time    0.00
    --------------------------------------------
      LOOP:  cpu time   46.15: real time   15.34

 eigenvalue-minimisations  :   227
 total energy-change (2. order) :-0.4183742E-02  (-0.1392427E-02)
 number of electron   92.0000000 magnetization 
 augmentation part    92.0000000 magnetization 

 Free energy of the ion-electron system (eV)
  ---------------------------------------------------
  alpha Z        PSCENC =        -7.38312591
  Ewald energy   TEWEN  =     -2151.72325042
  -1/2 Hartree   DENC   =       -46.23790440
  -exchange  EXHF       =         0.00000000
  -V(xc)+E(xc)   XCENC  =      -795.98944826
  PAW double counting   =      1078.21717227     -108.50372521
  entropy T*S    EENTRO =        -0.03879092
  eigenvalues    EBANDS =       289.37088346
  atomic energy  EATOM  =      1629.13144109
  ---------------------------------------------------
  free energy    TOTEN  =      -113.15674830 eV

  energy without entropy =     -113.11795738  energy(sigma->0) =     -113.14381799


--------------------------------------------------------------------------------------------------------




----------------------------------------- Iteration    1(  12)  ---------------------------------------


    EDDIAG:  cpu time    4.44: real time    3.09
  RMM-DIIS:  cpu time   32.69: real time    9.74
    ORTHCH:  cpu time    0.39: real time    0.10
       DOS:  cpu time    0.01: real time    0.00
    CHARGE:  cpu time    1.77: real time    1.68
    MIXING:  cpu time    0.07: real time    0.07
    --------------------------------------------
      LOOP:  cpu time   39.36: real time   14.69

 eigenvalue-minimisations  :   169
 total energy-change (2. order) :-0.8085062E-04  (-0.4459814E-04)
 number of electron   91.9999998 magnetization 
 augmentation part    -1.1028838 magnetization 

 Broyden mixing:
  rms(total) = 0.58132E+00    rms(broyden)= 0.58131E+00
  rms(prec ) = 0.12519E+01
  weight for this iteration     100.00

 Free energy of the ion-electron system (eV)
  ---------------------------------------------------
  alpha Z        PSCENC =        -7.38312591
  Ewald energy   TEWEN  =     -2151.72325042
  -1/2 Hartree   DENC   =       -46.23790440
  -exchange  EXHF       =         0.00000000
  -V(xc)+E(xc)   XCENC  =      -795.98944826
  PAW double counting   =      1078.21717227     -108.50372521
  entropy T*S    EENTRO =        -0.03861540
  eigenvalues    EBANDS =       289.37062709
  atomic energy  EATOM  =      1629.13144109
  ---------------------------------------------------
  free energy    TOTEN  =      -113.15682915 eV

  energy without entropy =     -113.11821375  energy(sigma->0) =     -113.14395735


--------------------------------------------------------------------------------------------------------




----------------------------------------- Iteration    1(  13)  ---------------------------------------


    POTLOK:  cpu time    1.90: real time    1.90
    SETDIJ:  cpu time    0.15: real time    0.15
    EDDIAG:  cpu time    4.86: real time    3.19
  RMM-DIIS:  cpu time   45.43: real time   13.75
    ORTHCH:  cpu time    0.33: real time    0.08
       DOS:  cpu time    0.01: real time    0.00
    CHARGE:  cpu time    1.75: real time    1.65
    MIXING:  cpu time    0.06: real time    0.06
    --------------------------------------------
      LOOP:  cpu time   54.49: real time   20.79

 eigenvalue-minimisations  :   248
 total energy-change (2. order) : 0.1385528E+01  (-0.4329132E+00)
 number of electron   91.9999998 magnetization 
 augmentation part    -1.1088530 magnetization 

 Broyden mixing:
  rms(total) = 0.33718E+00    rms(broyden)= 0.33718E+00
  rms(prec ) = 0.52568E+00
  weight for this iteration     100.00

 eigenvalues of (default mixing * dielectric matrix)
  average eigenvalue GAMMA=   1.9002
  1.9002

 Free energy of the ion-electron system (eV)
  ---------------------------------------------------
  alpha Z        PSCENC =        -7.38312591
  Ewald energy   TEWEN  =     -2151.72325042
  -1/2 Hartree   DENC   =       -51.44249183
  -exchange  EXHF       =         0.00000000
  -V(xc)+E(xc)   XCENC  =      -794.77853473
  PAW double counting   =      1081.48031999     -111.93802756
  entropy T*S    EENTRO =        -0.01652105
  eigenvalues    EBANDS =       294.89888901
  atomic energy  EATOM  =      1629.13144109
  ---------------------------------------------------
  free energy    TOTEN  =      -111.77130140 eV

  energy without entropy =     -111.75478036  energy(sigma->0) =     -111.76579439


--------------------------------------------------------------------------------------------------------




----------------------------------------- Iteration    1(  14)  ---------------------------------------


    POTLOK:  cpu time    1.90: real time    1.90
    SETDIJ:  cpu time    0.15: real time    0.15
    EDDIAG:  cpu time    4.89: real time    3.19
  RMM-DIIS:  cpu time   46.42: real time   14.12
    ORTHCH:  cpu time    0.33: real time    0.08
       DOS:  cpu time    0.01: real time    0.00
    CHARGE:  cpu time    1.77: real time    1.68
    MIXING:  cpu time    0.07: real time    0.06
    --------------------------------------------
      LOOP:  cpu time   55.54: real time   21.19

 eigenvalue-minimisations  :   260
 total energy-change (2. order) : 0.2349447E+00  (-0.3630718E-01)
 number of electron   91.9999998 magnetization 
 augmentation part    -1.1188287 magnetization 

 Broyden mixing:
  rms(total) = 0.19747E+00    rms(broyden)= 0.19747E+00
  rms(prec ) = 0.29140E+00
  weight for this iteration     100.00

 eigenvalues of (default mixing * dielectric matrix)
  average eigenvalue GAMMA=   1.7134
  2.5026  0.9242

 Free energy of the ion-electron system (eV)
  ---------------------------------------------------
  alpha Z        PSCENC =        -7.38312591
  Ewald energy   TEWEN  =     -2151.72325042
  -1/2 Hartree   DENC   =       -52.18228567
  -exchange  EXHF       =         0.00000000
  -V(xc)+E(xc)   XCENC  =      -793.89786048
  PAW double counting   =      1083.17408756     -113.75847264
  entropy T*S    EENTRO =        -0.02601124
  eigenvalues    EBANDS =       295.12912103
  atomic energy  EATOM  =      1629.13144109
  ---------------------------------------------------
  free energy    TOTEN  =      -111.53635668 eV

  energy without entropy =     -111.51034544  energy(sigma->0) =     -111.52768627


--------------------------------------------------------------------------------------------------------




----------------------------------------- Iteration    1(  15)  ---------------------------------------


    POTLOK:  cpu time    1.95: real time    1.90
    SETDIJ:  cpu time    0.15: real time    0.15
    EDDIAG:  cpu time    4.90: real time    3.20
  RMM-DIIS:  cpu time   44.46: real time   13.41
    ORTHCH:  cpu time    0.33: real time    0.08
       DOS:  cpu time    0.01: real time    0.00
    CHARGE:  cpu time    1.75: real time    1.66
    MIXING:  cpu time    0.08: real time    0.06
    --------------------------------------------
      LOOP:  cpu time   53.64: real time   20.46

 eigenvalue-minimisations  :   253
 total energy-change (2. order) : 0.1001771E+00  (-0.1092657E-01)
 number of electron   91.9999998 magnetization 
 augmentation part    -1.1320786 magnetization 

 Broyden mixing:
  rms(total) = 0.45322E-01    rms(broyden)= 0.45322E-01
  rms(prec ) = 0.75098E-01
  weight for this iteration     100.00

 eigenvalues of (default mixing * dielectric matrix)
  average eigenvalue GAMMA=   1.6086
  2.6166  1.0509  1.1584

 Free energy of the ion-electron system (eV)
  ---------------------------------------------------
  alpha Z        PSCENC =        -7.38312591
  Ewald energy   TEWEN  =     -2151.72325042
  -1/2 Hartree   DENC   =       -53.14008625
  -exchange  EXHF       =         0.00000000
  -V(xc)+E(xc)   XCENC  =      -792.76607134
  PAW double counting   =      1084.92516766     -115.67333250
  entropy T*S    EENTRO =        -0.02840978
  eigenvalues    EBANDS =       295.22148788
  atomic energy  EATOM  =      1629.13144109
  ---------------------------------------------------
  free energy    TOTEN  =      -111.43617956 eV

  energy without entropy =     -111.40776978  energy(sigma->0) =     -111.42670964


--------------------------------------------------------------------------------------------------------




----------------------------------------- Iteration    1(  16)  ---------------------------------------


    POTLOK:  cpu time    1.99: real time    1.92
    SETDIJ:  cpu time    0.15: real time    0.15
    EDDIAG:  cpu time    4.90: real time    3.20
  RMM-DIIS:  cpu time   45.72: real time   13.72
    ORTHCH:  cpu time    0.33: real time    0.08
       DOS:  cpu time    0.01: real time    0.00
    CHARGE:  cpu time    1.75: real time    1.65
    MIXING:  cpu time    0.09: real time    0.06
    --------------------------------------------
      LOOP:  cpu time   54.95: real time   20.79

 eigenvalue-minimisations  :   263
 total energy-change (2. order) : 0.7274468E-02  (-0.1630882E-02)
 number of electron   91.9999998 magnetization 
 augmentation part    -1.1373836 magnetization 

 Broyden mixing:
  rms(total) = 0.84598E-02    rms(broyden)= 0.84597E-02
  rms(prec ) = 0.19160E-01
  weight for this iteration     100.00

 eigenvalues of (default mixing * dielectric matrix)
  average eigenvalue GAMMA=   1.6849
  2.6104  2.0824  1.0235  1.0235

 Free energy of the ion-electron system (eV)
  ---------------------------------------------------
  alpha Z        PSCENC =        -7.38312591
  Ewald energy   TEWEN  =     -2151.72325042
  -1/2 Hartree   DENC   =       -53.44893599
  -exchange  EXHF       =         0.00000000
  -V(xc)+E(xc)   XCENC  =      -792.42762803
  PAW double counting   =      1085.47308184     -116.27947655
  entropy T*S    EENTRO =        -0.02571721
  eigenvalues    EBANDS =       295.25470607
  atomic energy  EATOM  =      1629.13144109
  ---------------------------------------------------
  free energy    TOTEN  =      -111.42890509 eV

  energy without entropy =     -111.40318788  energy(sigma->0) =     -111.42033269


--------------------------------------------------------------------------------------------------------




----------------------------------------- Iteration    1(  17)  ---------------------------------------


    POTLOK:  cpu time    2.05: real time    1.91
    SETDIJ:  cpu time    0.15: real time    0.15
    EDDIAG:  cpu time    4.92: real time    3.20
  RMM-DIIS:  cpu time   43.78: real time   13.24
    ORTHCH:  cpu time    0.33: real time    0.08
       DOS:  cpu time    0.01: real time    0.00
    CHARGE:  cpu time    1.74: real time    1.65
    MIXING:  cpu time    0.10: real time    0.06
    --------------------------------------------
      LOOP:  cpu time   53.09: real time   20.30

 eigenvalue-minimisations  :   248
 total energy-change (2. order) : 0.4421859E-03  (-0.2151314E-03)
 number of electron   91.9999998 magnetization 
 augmentation part    -1.1389724 magnetization 

 Broyden mixing:
  rms(total) = 0.25312E-02    rms(broyden)= 0.25312E-02
  rms(prec ) = 0.43388E-02
  weight for this iteration     100.00

 eigenvalues of (default mixing * dielectric matrix)
  average eigenvalue GAMMA=   1.6143
  2.6464  0.9733  0.9733  2.0124  1.4663

 Free energy of the ion-electron system (eV)
  ---------------------------------------------------
  alpha Z        PSCENC =        -7.38312591
  Ewald energy   TEWEN  =     -2151.72325042
  -1/2 Hartree   DENC   =       -53.32634482
  -exchange  EXHF       =         0.00000000
  -V(xc)+E(xc)   XCENC  =      -792.39919762
  PAW double counting   =      1085.55220890     -116.37176570
  entropy T*S    EENTRO =        -0.02628221
  eigenvalues    EBANDS =       295.11785378
  atomic energy  EATOM  =      1629.13144109
  ---------------------------------------------------
  free energy    TOTEN  =      -111.42846291 eV

  energy without entropy =     -111.40218070  energy(sigma->0) =     -111.41970217


--------------------------------------------------------------------------------------------------------




----------------------------------------- Iteration    1(  18)  ---------------------------------------


    POTLOK:  cpu time    2.03: real time    1.91
    SETDIJ:  cpu time    0.15: real time    0.15
    EDDIAG:  cpu time    4.90: real time    3.20
  RMM-DIIS:  cpu time   33.47: real time   10.25
    ORTHCH:  cpu time    0.34: real time    0.08
       DOS:  cpu time    0.01: real time    0.00
    --------------------------------------------
      LOOP:  cpu time   40.91: real time   15.60

 eigenvalue-minimisations  :   176
 total energy-change (2. order) :-0.2200479E-05  (-0.1612717E-04)
 number of electron   91.9999998 magnetization 
 augmentation part    -1.1389724 magnetization 

 Free energy of the ion-electron system (eV)
  ---------------------------------------------------
  alpha Z        PSCENC =        -7.38312591
  Ewald energy   TEWEN  =     -2151.72325042
  -1/2 Hartree   DENC   =       -53.34326628
  -exchange  EXHF       =         0.00000000
  -V(xc)+E(xc)   XCENC  =      -792.38855959
  PAW double counting   =      1085.56995680     -116.39421041
  entropy T*S    EENTRO =        -0.02639229
  eigenvalues    EBANDS =       295.12894190
  atomic energy  EATOM  =      1629.13144109
  ---------------------------------------------------
  free energy    TOTEN  =      -111.42846511 eV

  energy without entropy =     -111.40207281  energy(sigma->0) =     -111.41966768


--------------------------------------------------------------------------------------------------------




 average (electrostatic) potential at core
  the test charge radii are     1.0714  1.0406
  (the norm of the test charge is              1.0000)
       1 -50.7711       2 -72.9476       3 -73.1377       4 -73.0210       5 -73.0210
       6 -73.0458       7 -73.0458       8 -73.0671       9 -72.9441      10 -72.9916
      11 -73.0210      12 -73.0210      13 -73.0990      14 -73.0990      15 -73.0671
      16 -72.9441      17 -73.0458      18 -73.0458      19 -72.9441      20 -73.0671
      21 -73.1376      22 -72.9477      23 -73.0210      24 -73.0210      25 -73.0990
      26 -73.0990      27 -72.9441      28 -73.0671      29 -72.9916      30 -73.0210
      31 -73.0210
 
 
 
 E-fermi :   7.8184     XC(G=0):  -9.9995     alpha+bet :-14.3073
   add alpha+bet to get absolut eigen values

 k-point   1 :       0.2500    0.2500    0.2500
  band No.  band energies     occupation 
      1      -3.1452      2.00000
      2      -2.1528      2.00000
      3      -1.9351      2.00000
      4      -1.7228      2.00000
      5      -0.8992      2.00000
      6      -0.8361      2.00000
      7      -0.2985      2.00000
      8       0.0910      2.00000
      9       0.2969      2.00000
     10       0.4481      2.00000
     11       0.6653      2.00000
     12       1.1794      2.00000
     13       1.3370      2.00000
     14       1.3544      2.00000
     15       1.4011      2.00000
     16       1.8879      2.00000
     17       1.9632      2.00000
     18       2.7549      2.00000
     19       2.7562      2.00000
     20       3.0089      2.00000
     21       3.4253      2.00000
     22       3.4735      2.00000
     23       3.5267      2.00000
     24       3.5572      2.00000
     25       3.6652      2.00000
     26       4.0876      2.00000
     27       4.3486      2.00000
     28       4.4727      2.00000
     29       4.6557      2.00000
     30       4.7696      2.00000
     31       4.9132      2.00000
     32       4.9170      2.00000
     33       4.9488      2.00000
     34       5.1425      2.00000
     35       5.3053      2.00000
     36       5.7187      2.00000
     37       5.9304      2.00000
     38       6.4557      2.00000
     39       6.5794      2.00000
     40       6.6624      2.00000
     41       6.7625      2.00000
     42       6.8969      2.00000
     43       7.0181      2.00000
     44       7.1134      2.00001
     45       7.1996      2.00011
     46       7.7695      1.39968
     47       7.8090      1.07918
     48       7.9375      0.16373
     49       8.0504     -0.06952
     50       8.0712     -0.07046
     51       8.1241     -0.05271
     52       8.2043     -0.01993
     53       8.5311     -0.00001
     54       8.6894      0.00000
     55       8.9125      0.00000
     56       9.1099      0.00000
     57       9.1279      0.00000
     58       9.3400      0.00000
     59       9.3998      0.00000
     60       9.5849      0.00000
     61       9.9685      0.00000
     62      10.0845      0.00000

 k-point   2 :      -0.2500    0.2500    0.2500
  band No.  band energies     occupation 
      1      -3.1447      2.00000
      2      -2.1929      2.00000
      3      -1.8353      2.00000
      4      -1.7718      2.00000
      5      -0.9506      2.00000
      6      -0.7044      2.00000
      7      -0.4515      2.00000
      8       0.0375      2.00000
      9       0.3618      2.00000
     10       0.4491      2.00000
     11       0.6541      2.00000
     12       1.2968      2.00000
     13       1.3284      2.00000
     14       1.3685      2.00000
     15       1.6703      2.00000
     16       1.6960      2.00000
     17       1.8596      2.00000
     18       2.6666      2.00000
     19       2.7754      2.00000
     20       2.9387      2.00000
     21       3.3836      2.00000
     22       3.5122      2.00000
     23       3.5470      2.00000
     24       3.5783      2.00000
     25       3.8262      2.00000
     26       3.9136      2.00000
     27       4.4073      2.00000
     28       4.5351      2.00000
     29       4.6396      2.00000
     30       4.7027      2.00000
     31       4.8304      2.00000
     32       4.9280      2.00000
     33       5.0493      2.00000
     34       5.0858      2.00000
     35       5.2663      2.00000
     36       5.7221      2.00000
     37       6.1260      2.00000
     38       6.3050      2.00000
     39       6.6292      2.00000
     40       6.6402      2.00000
     41       6.9301      2.00000
     42       7.0206      2.00000
     43       7.0413      2.00000
     44       7.0837      2.00000
     45       7.1135      2.00001
     46       7.8122      1.05213
     47       7.8573      0.67695
     48       7.9565      0.08674
     49       8.0827     -0.06838
     50       8.0843     -0.06799
     51       8.0948     -0.06480
     52       8.1503     -0.04068
     53       8.2926     -0.00404
     54       8.5006     -0.00002
     55       9.0381      0.00000
     56       9.0464      0.00000
     57       9.1064      0.00000
     58       9.3526      0.00000
     59       9.4630      0.00000
     60       9.5752      0.00000
     61       9.9989      0.00000
     62      10.1207      0.00000


--------------------------------------------------------------------------------------------------------


 soft charge-density along one line, spin component           1
         0         1         2         3         4         5         6         7         8         9
 total charge-density along one line
 
 pseudopotential strength for first ion, spin component:           1
  3.567  -0.041   0.000   0.000   0.000   0.000   0.000   0.000
 -0.041  -0.002   0.000   0.000   0.000   0.000   0.000   0.000
  0.000   0.000   0.741   0.000   0.000  -0.042   0.000   0.000
  0.000   0.000   0.000   0.740   0.000   0.000  -0.041   0.000
  0.000   0.000   0.000   0.000   0.740   0.000   0.000  -0.041
  0.000   0.000  -0.042   0.000   0.000  -0.031   0.000   0.000
  0.000   0.000   0.000  -0.041   0.000   0.000  -0.032   0.000
  0.000   0.000   0.000   0.000  -0.041   0.000   0.000  -0.032
 total augmentation occupancy for first ion, spin component:           1
  1.136  -0.048   0.000   0.000   0.000   0.000   0.000   0.000
 -0.048   0.004   0.000   0.000   0.000   0.000   0.000   0.000
  0.000   0.000   0.957   0.000   0.000   0.038   0.000   0.000
  0.000   0.000   0.000   0.588  -0.187   0.000   0.023  -0.007
  0.000   0.000   0.000  -0.187   0.588   0.000  -0.007   0.023
  0.000   0.000   0.038   0.000   0.000   0.002   0.000   0.000
  0.000   0.000   0.000   0.023  -0.007   0.000   0.001   0.000
  0.000   0.000   0.000  -0.007   0.023   0.000   0.000   0.001


------------------------ aborting loop because EDIFF is reached ----------------------------------------




--------------------------------------------------------------------------------------------------------



  FREE ENERGIE OF THE ION-ELECTRON SYSTEM (eV)
  ---------------------------------------------------
  free  energy   TOTEN  =      -111.428465 eV

  energy  without entropy=     -111.402073  energy(sigma->0) =     -111.419668
 
    CHARGE:  cpu time    1.99: real time    2.00
    FORLOC:  cpu time    0.77: real time    0.77
    FORNL :  cpu time    5.88: real time    5.88
    STRESS:  cpu time   39.44: real time   10.72
    FORCOR:  cpu time    2.76: real time    2.76
    FORHAR:  cpu time    1.25: real time    1.25
    MIXING:  cpu time    0.10: real time    0.06

  FORCE on cell =-STRESS in cart. coord.  units (eV):
  Direction    XX          YY          ZZ          XY          YZ          ZX
  --------------------------------------------------------------------------------------
  Alpha Z    -7.38313    -7.38313    -7.38313
  Ewald    -708.07442  -735.58266  -708.07442     0.00000     0.00000     1.75127
  Hartree    25.86285     1.64764    25.86285     0.00000     0.00000     3.76463
  E(xc)    -261.67737  -261.89393  -261.67737     0.00000     0.00000     0.15504
  Local     -51.32319     0.08592   -51.32319     0.00000     0.00000    -5.86231
  n-local   579.81638   581.73990   579.81588     0.46770    -0.84604    -1.47420
  augment   -30.39752   -30.49653   -30.39750     0.00000     0.00000     0.01646
  Kinetic   456.04792   458.04025   456.04767    -2.50964    -0.28386     1.62939
  Fock        0.00000     0.00000     0.00000     0.00000     0.00000     0.00000
  -------------------------------------------------------------------------------------
  Total       2.87116     6.15747     2.87116     0.00000     0.00000    -0.01971
  in kB       8.69754    18.65271     8.69754     0.00000     0.00000    -0.05969
  external pressure =       12.02 kB  Pullay stress =        0.00 kB


 VOLUME and BASIS-vectors are now :
 -----------------------------------------------------------------------------
  energy-cutoff  :      300.00
  volume of cell :      528.90
      direct lattice vectors                 reciprocal lattice vectors
     8.087054000  0.000000000  0.000000000     0.123654423  0.000000000  0.000000000
     0.000000000  8.087054000  0.000000000     0.000000000  0.123654423  0.000000000
     0.000000000  0.000000000  8.087054000     0.000000000  0.000000000  0.123654423

  length of vectors
     8.087054000  8.087054000  8.087054000     0.123654423  0.123654423  0.123654423


 FORCES acting on ions
    electron-ion (+dipol)            ewald-force                    non-local-force                 convergence-correction
 -----------------------------------------------------------------------------------------------
   0.525E-03 -.813E-13 0.525E-03   -.524E-03 0.347E-14 -.524E-03   0.427E-04 0.000E+00 0.427E-04   -.241E-04 -.117E-13 -.241E-04
   -.852E+01 0.564E-13 -.852E+01   0.758E+01 0.255E-14 0.758E+01   0.160E+01 0.000E+00 0.160E+01   0.107E-02 0.425E-14 0.107E-02
   0.102E+01 -.196E-13 0.102E+01   -.631E+00 -.472E-14 -.631E+00   -.789E+00 0.000E+00 -.789E+00   0.225E-02 0.182E-13 0.225E-02
   -.276E+01 -.151E+02 -.105E+02   0.243E+01 0.148E+02 0.103E+02   0.316E+00 0.647E+00 0.596E+00   0.174E-02 0.631E-02 0.604E-03
   -.105E+02 -.151E+02 -.276E+01   0.103E+02 0.148E+02 0.243E+01   0.596E+00 0.647E+00 0.316E+00   0.603E-03 0.631E-02 0.174E-02
   0.568E+01 0.868E-14 -.237E+00   -.571E+01 -.999E-15 -.137E-01   -.238E+00 0.000E+00 -.470E-01   -.116E-02 0.480E-14 0.198E-02
   0.235E+00 0.220E-13 -.568E+01   0.152E-01 -.906E-12 0.571E+01   0.477E-01 0.867E-18 0.237E+00   -.193E-02 0.191E-13 0.111E-02
   0.220E+01 -.112E+02 -.220E+01   -.225E+01 0.105E+02 0.226E+01   0.128E+00 0.117E+01 -.128E+00   -.182E-02 0.655E-02 0.195E-02
   0.101E+02 -.191E+02 -.101E+02   -.982E+01 0.185E+02 0.982E+01   -.641E+00 0.122E+01 0.641E+00   -.954E-03 0.565E-02 0.101E-02
   -.113E+02 -.347E-12 -.113E+02   0.109E+02 -.848E-12 0.109E+02   0.859E+00 0.000E+00 0.859E+00   0.728E-03 -.210E-14 0.730E-03
   -.276E+01 0.151E+02 -.105E+02   0.243E+01 -.148E+02 0.103E+02   0.316E+00 -.647E+00 0.596E+00   0.174E-02 -.631E-02 0.604E-03
   -.105E+02 0.151E+02 -.276E+01   0.103E+02 -.148E+02 0.243E+01   0.596E+00 -.647E+00 0.316E+00   0.603E-03 -.631E-02 0.174E-02
   0.122E+02 -.683E-13 -.531E+01   -.119E+02 -.910E-14 0.550E+01   -.868E+00 0.867E-18 -.431E+00   -.106E-02 -.421E-14 0.150E-02
   0.531E+01 -.210E-12 -.122E+02   -.550E+01 -.329E-13 0.119E+02   0.431E+00 0.000E+00 0.867E+00   -.137E-02 -.162E-13 0.963E-03
   0.220E+01 0.112E+02 -.220E+01   -.225E+01 -.105E+02 0.226E+01   0.128E+00 -.117E+01 -.128E+00   -.182E-02 -.655E-02 0.195E-02
   0.101E+02 0.191E+02 -.101E+02   -.982E+01 -.185E+02 0.982E+01   -.641E+00 -.122E+01 0.641E+00   -.954E-03 -.565E-02 0.101E-02
   -.237E+00 0.192E-12 0.568E+01   -.137E-01 0.111E-15 -.571E+01   -.470E-01 0.000E+00 -.238E+00   0.198E-02 0.322E-13 -.116E-02
   -.568E+01 -.387E-13 0.235E+00   0.571E+01 0.155E-13 0.152E-01   0.237E+00 0.000E+00 0.477E-01   0.110E-02 0.908E-14 -.193E-02
   -.101E+02 -.191E+02 0.101E+02   0.982E+01 0.185E+02 -.982E+01   0.641E+00 0.122E+01 -.641E+00   0.101E-02 0.565E-02 -.954E-03
   -.220E+01 -.112E+02 0.220E+01   0.226E+01 0.105E+02 -.225E+01   -.128E+00 0.117E+01 0.128E+00   0.195E-02 0.655E-02 -.182E-02
   -.102E+01 -.537E-14 -.102E+01   0.631E+00 -.122E-14 0.631E+00   0.789E+00 0.000E+00 0.789E+00   -.229E-02 0.182E-13 -.229E-02
   0.852E+01 0.433E-13 0.852E+01   -.758E+01 0.616E-14 -.758E+01   -.160E+01 0.000E+00 -.160E+01   -.104E-02 0.126E-13 -.104E-02
   0.105E+02 -.151E+02 0.276E+01   -.103E+02 0.148E+02 -.243E+01   -.596E+00 0.647E+00 -.316E+00   -.600E-03 0.621E-02 -.193E-02
   0.276E+01 -.151E+02 0.105E+02   -.243E+01 0.148E+02 -.103E+02   -.316E+00 0.647E+00 -.596E+00   -.193E-02 0.621E-02 -.601E-03
   -.531E+01 0.438E-13 0.122E+02   0.550E+01 -.643E-13 -.119E+02   -.431E+00 0.000E+00 -.868E+00   0.150E-02 -.299E-13 -.106E-02
   -.122E+02 0.478E-14 0.531E+01   0.119E+02 -.264E-13 -.550E+01   0.867E+00 -.173E-17 0.431E+00   0.962E-03 -.925E-14 -.138E-02
   -.101E+02 0.191E+02 0.101E+02   0.982E+01 -.185E+02 -.982E+01   0.641E+00 -.122E+01 -.641E+00   0.101E-02 -.565E-02 -.954E-03
   -.220E+01 0.112E+02 0.220E+01   0.226E+01 -.105E+02 -.225E+01   -.128E+00 -.117E+01 0.128E+00   0.195E-02 -.655E-02 -.182E-02
   0.113E+02 0.543E-13 0.113E+02   -.109E+02 0.110E-13 -.109E+02   -.859E+00 0.000E+00 -.859E+00   -.535E-03 -.110E-13 -.536E-03
   0.105E+02 0.151E+02 0.276E+01   -.103E+02 -.148E+02 -.243E+01   -.596E+00 -.647E+00 -.316E+00   -.600E-03 -.621E-02 -.193E-02
   0.276E+01 0.151E+02 0.105E+02   -.243E+01 -.148E+02 -.103E+02   -.316E+00 -.647E+00 -.596E+00   -.193E-02 -.621E-02 -.601E-03
 -----------------------------------------------------------------------------------------------
   -.279E-04 -.790E-12 -.279E-04   0.444E-15 0.107E-13 0.107E-13   -.169E-03 -.222E-15 -.169E-03   0.199E-03 0.393E-13 0.199E-03
 
 
 POSITION                                       TOTAL-FORCE (eV/Angst)
 -----------------------------------------------------------------------------------
      3.03269      4.04353      3.03269         0.000020      0.000000      0.000020
      8.01596      0.00000      8.01596         0.655459      0.000000      0.655459
      2.04416      0.00000      2.04416        -0.400161      0.000000     -0.400161
      2.00967      2.00741      8.07508        -0.010009      0.369352      0.354382
      8.07508      2.00741      2.00967         0.354382      0.369352     -0.010009
      4.07339      0.00000      7.99607        -0.264006      0.000000     -0.295452
      6.15625      0.00000      1.99192         0.295713      0.000000      0.263846
      6.09136      1.93299      8.06095         0.067337      0.475274     -0.067126
      4.17472      1.77249      1.89058        -0.338689      0.609175      0.338554
      8.03465      4.04353      8.03465         0.391941      0.000000      0.391941
      2.00967      6.07965      8.07508        -0.010009     -0.369352      0.354382
      8.07508      6.07965      2.00967         0.354382     -0.369352     -0.010009
      4.10776      4.04353      0.04660        -0.556327      0.000000     -0.239405
      6.01866      4.04353      1.95757         0.239546      0.000000      0.556201
      6.09136      6.15406      8.06095         0.067337     -0.475274     -0.067126
      4.17472      6.31457      1.89058        -0.338689     -0.609175      0.338554
      7.99607      0.00000      4.07339        -0.295452      0.000000     -0.264006
      1.99192      0.00000      6.15625         0.263846      0.000000      0.295713
      1.89058      1.77249      4.17472         0.338554      0.609175     -0.338689
      8.06095      1.93299      6.09136        -0.067126      0.475274      0.067337
      4.02113      0.00000      4.02113         0.400126      0.000000      0.400126
      6.13638      0.00000      6.13638        -0.655455      0.000000     -0.655455
      6.07729      2.00741      4.05561        -0.354511      0.369415      0.010031
      4.05561      2.00741      6.07729         0.010031      0.369415     -0.354511
      0.04660      4.04353      4.10776        -0.239405      0.000000     -0.556327
      1.95757      4.04353      6.01866         0.556201      0.000000      0.239546
      1.89058      6.31457      4.17472         0.338554     -0.609175     -0.338689
      8.06095      6.15406      6.09136        -0.067126     -0.475274      0.067337
      6.11773      4.04353      6.11773        -0.391985      0.000000     -0.391985
      6.07729      6.07965      4.05561        -0.354511     -0.369415      0.010031
      4.05561      6.07965      6.07729         0.010031     -0.369415     -0.354511
 -----------------------------------------------------------------------------------
    total drift:                                0.000002      0.000000      0.000002


--------------------------------------------------------------------------------------------------------


    POTLOK:  cpu time    2.34: real time    2.21


--------------------------------------------------------------------------------------------------------


 NEB: the previous image is higher in energy: F
 NEB: the next image is higher in energy    : F
 NEB: image is at an extrema
 NEB: diff energy (min, max):   111.428465  111.428465

 NEB: Tangent
 ----------------------------------------------
      0.70417      0.00000      0.70417
     -0.00194      0.00000     -0.00194
      0.00298      0.00000      0.00298
      0.00462      0.01479      0.01566
      0.01566      0.01479      0.00462
      0.00146      0.00000      0.00145
      0.00142      0.00000      0.00147
     -0.00343      0.00002     -0.00342
     -0.01339      0.00004     -0.01337
      0.01628      0.00000      0.01628
      0.00462     -0.01479      0.01566
      0.01566     -0.01479      0.00462
     -0.01148      0.00000      0.01766
      0.01759      0.00000     -0.01145
     -0.00343     -0.00002     -0.00342
     -0.01339     -0.00004     -0.01337
      0.00145      0.00000      0.00146
      0.00147      0.00000      0.00142
     -0.01337      0.00004     -0.01339
     -0.00342      0.00002     -0.00343
      0.00300      0.00000      0.00300
     -0.00196      0.00000     -0.00196
      0.01563     -0.01477      0.00462
      0.00462     -0.01477      0.01563
      0.01766      0.00000     -0.01148
     -0.01145      0.00000      0.01759
     -0.01337     -0.00004     -0.01339
     -0.00342     -0.00002     -0.00343
      0.01628      0.00000      0.01628
      0.01563      0.01477      0.00462
      0.00462      0.01477      0.01563

 NEB: forces: par spring, perp REAL, dneb     0.000342    3.241530    0.000000
 NEB: distance to prev, next image, angle between     1.469750    1.469681  126.347583
 NEB: projections on to tangent (spring, REAL)    -0.000342    0.000300

  FORCES: max atom, RMS     0.926961    0.582196
  FORCE total and by dimension    3.241530    0.655461
 Quasi-Newton relaxation of ions (Broydens 2nd method)
  g(Force)  = 0.507E+00   g(Stress)= 0.000E+00

 Reset! Starting new Quasi-Newton update for ions 


--------------------------------------------------------------------------------------------------------


    WAVPRE:  cpu time    0.97: real time    0.97
    FEWALD:  cpu time    0.01: real time    0.01
    ORTHCH:  cpu time    5.01: real time    1.27
     LOOP+:  cpu time  798.73: real time  301.63
   RESPFUN:  cpu time    0.00: real time    0.00


----------------------------------------- Iteration    2(   1)  ---------------------------------------


    POTLOK:  cpu time    2.52: real time    2.42
    SETDIJ:  cpu time    0.16: real time    0.16
    EDDIAG:  cpu time    5.04: real time    3.36
  RMM-DIIS:  cpu time   42.07: real time   12.44
    ORTHCH:  cpu time    0.34: real time    0.08
       DOS:  cpu time    0.01: real time    0.00
    CHARGE:  cpu time    2.08: real time    1.99
    MIXING:  cpu time    0.05: real time    0.06
    --------------------------------------------
      LOOP:  cpu time   52.28: real time   20.51

 eigenvalue-minimisations  :   248
 total energy-change (2. order) :-0.4218734E+00  (-0.3719940E+00)
 number of electron   91.9999999 magnetization 
 augmentation part    -1.1414409 magnetization 

 Broyden mixing:
  rms(total) = 0.39738E-01    rms(broyden)= 0.39731E-01
  rms(prec ) = 0.11687E+00
  weight for this iteration     100.00

 Free energy of the ion-electron system (eV)
  ---------------------------------------------------
  alpha Z        PSCENC =        -7.38312591
  Ewald energy   TEWEN  =     -2161.84222178
  -1/2 Hartree   DENC   =       -45.38542749
  -exchange  EXHF       =         0.00000000
  -V(xc)+E(xc)   XCENC  =      -792.52879812
  PAW double counting   =      1085.56892154     -116.39540438
  entropy T*S    EENTRO =        -0.00791223
  eigenvalues    EBANDS =       296.99219095
  atomic energy  EATOM  =      1629.13144109
  ---------------------------------------------------
  free energy    TOTEN  =      -111.85033633 eV

  energy without entropy =     -111.84242410  energy(sigma->0) =     -111.84769892


--------------------------------------------------------------------------------------------------------




----------------------------------------- Iteration    2(   2)  ---------------------------------------


    POTLOK:  cpu time    2.06: real time    2.06
    SETDIJ:  cpu time    0.17: real time    0.17
    EDDIAG:  cpu time    5.06: real time    3.38
  RMM-DIIS:  cpu time   44.49: real time   13.17
    ORTHCH:  cpu time    0.34: real time    0.08
       DOS:  cpu time    0.01: real time    0.00
    CHARGE:  cpu time    2.12: real time    2.02
    MIXING:  cpu time    0.06: real time    0.06
    --------------------------------------------
      LOOP:  cpu time   54.29: real time   20.94

 eigenvalue-minimisations  :   252
 total energy-change (2. order) : 0.1682878E-01  (-0.6213319E-02)
 number of electron   91.9999999 magnetization 
 augmentation part    -1.1413320 magnetization 

 Broyden mixing:
  rms(total) = 0.16460E-01    rms(broyden)= 0.16459E-01
  rms(prec ) = 0.37327E-01
  weight for this iteration     100.00

 eigenvalues of (default mixing * dielectric matrix)
  average eigenvalue GAMMA=   1.5258
  1.5258

 Free energy of the ion-electron system (eV)
  ---------------------------------------------------
  alpha Z        PSCENC =        -7.38312591
  Ewald energy   TEWEN  =     -2161.84222178
  -1/2 Hartree   DENC   =       -44.97109576
  -exchange  EXHF       =         0.00000000
  -V(xc)+E(xc)   XCENC  =      -792.54400792
  PAW double counting   =      1085.27790874     -116.09350844
  entropy T*S    EENTRO =        -0.01247845
  eigenvalues    EBANDS =       296.60358086
  atomic energy  EATOM  =      1629.13144109
  ---------------------------------------------------
  free energy    TOTEN  =      -111.83350755 eV

  energy without entropy =     -111.82102910  energy(sigma->0) =     -111.82934806


--------------------------------------------------------------------------------------------------------




----------------------------------------- Iteration    2(   3)  ---------------------------------------


    POTLOK:  cpu time    2.06: real time    2.06
    SETDIJ:  cpu time    0.17: real time    0.17
    EDDIAG:  cpu time    5.15: real time    3.47
  RMM-DIIS:  cpu time   43.45: real time   12.76
    ORTHCH:  cpu time    0.34: real time    0.08
       DOS:  cpu time    0.01: real time    0.00
    CHARGE:  cpu time    2.09: real time    2.00
    MIXING:  cpu time    0.07: real time    0.06
    --------------------------------------------
      LOOP:  cpu time   53.33: real time   20.60

 eigenvalue-minimisations  :   253
 total energy-change (2. order) : 0.1717688E-02  (-0.1078595E-02)
 number of electron   91.9999999 magnetization 
 augmentation part    -1.1413216 magnetization 

 Broyden mixing:
  rms(total) = 0.59641E-02    rms(broyden)= 0.59640E-02
  rms(prec ) = 0.95026E-02
  weight for this iteration     100.00

 eigenvalues of (default mixing * dielectric matrix)
  average eigenvalue GAMMA=   1.4888
  1.4888  1.4888

 Free energy of the ion-electron system (eV)
  ---------------------------------------------------
  alpha Z        PSCENC =        -7.38312591
  Ewald energy   TEWEN  =     -2161.84222178
  -1/2 Hartree   DENC   =       -44.82619113
  -exchange  EXHF       =         0.00000000
  -V(xc)+E(xc)   XCENC  =      -792.55303113
  PAW double counting   =      1085.07641979     -115.88359030
  entropy T*S    EENTRO =        -0.01371088
  eigenvalues    EBANDS =       296.46222039
  atomic energy  EATOM  =      1629.13144109
  ---------------------------------------------------
[...]
      26 -73.0812      27 -72.8983      28 -73.0516      29 -73.0194      30 -73.0295
      31 -73.0295
 
 
 
 E-fermi :   7.8725     XC(G=0): -10.0126     alpha+bet :-14.3073
   add alpha+bet to get absolut eigen values

 k-point   1 :       0.2500    0.2500    0.2500
  band No.  band energies     occupation 
      1      -2.9834      2.00000
      2      -1.9606      2.00000
      3      -1.8787      2.00000
      4      -1.6420      2.00000
      5      -0.8118      2.00000
      6      -0.7608      2.00000
      7      -0.3541      2.00000
      8       0.2571      2.00000
      9       0.3217      2.00000
     10       0.5325      2.00000
     11       0.6162      2.00000
     12       1.3449      2.00000
     13       1.3639      2.00000
     14       1.4058      2.00000
     15       1.5393      2.00000
     16       1.8139      2.00000
     17       1.9402      2.00000
     18       2.7011      2.00000
     19       2.7088      2.00000
     20       2.9048      2.00000
     21       3.5304      2.00000
     22       3.5915      2.00000
     23       3.6286      2.00000
     24       3.6769      2.00000
     25       3.7361      2.00000
     26       4.0505      2.00000
     27       4.5308      2.00000
     28       4.5582      2.00000
     29       4.6451      2.00000
     30       4.8074      2.00000
     31       4.8649      2.00000
     32       4.8706      2.00000
     33       4.9292      2.00000
     34       5.1107      2.00000
     35       5.2066      2.00000
     36       5.7269      2.00000
     37       5.8932      2.00000
     38       6.3558      2.00000
     39       6.7100      2.00000
     40       6.7756      2.00000
     41       6.7865      2.00000
     42       6.9443      2.00000
     43       6.9895      2.00000
     44       7.0940      2.00000
     45       7.1496      2.00000
     46       7.7896      1.63925
     47       7.8878      0.87118
     48       8.0066      0.10156
     49       8.0362      0.01081
     50       8.1622     -0.05973
     51       8.1984     -0.04340
     52       8.2072     -0.03943
     53       8.3738     -0.00225
     54       8.5369     -0.00003
     55       9.0567      0.00000
     56       9.1372      0.00000
     57       9.1880      0.00000
     58       9.3545      0.00000
     59       9.3720      0.00000
     60       9.5151      0.00000
     61       9.9878      0.00000
     62      10.0509      0.00000

 k-point   2 :      -0.2500    0.2500    0.2500
  band No.  band energies     occupation 
      1      -2.9863      2.00000
      2      -1.9508      2.00000
      3      -1.8156      2.00000
      4      -1.7224      2.00000
      5      -0.8254      2.00000
      6      -0.6090      2.00000
      7      -0.5489      2.00000
      8       0.2614      2.00000
      9       0.3984      2.00000
     10       0.4414      2.00000
     11       0.6991      2.00000
     12       1.3935      2.00000
     13       1.4280      2.00000
     14       1.4929      2.00000
     15       1.4936      2.00000
     16       1.7682      2.00000
     17       1.8426      2.00000
     18       2.6218      2.00000
     19       2.7733      2.00000
     20       2.8398      2.00000
     21       3.5377      2.00000
     22       3.5878      2.00000
     23       3.6339      2.00000
     24       3.6811      2.00000
     25       3.8119      2.00000
     26       3.9630      2.00000
     27       4.5982      2.00000
     28       4.6516      2.00000
     29       4.6778      2.00000
     30       4.6990      2.00000
     31       4.7160      2.00000
     32       4.9496      2.00000
     33       4.9735      2.00000
     34       5.0597      2.00000
     35       5.1750      2.00000
     36       5.7465      2.00000
     37       6.1177      2.00000
     38       6.1777      2.00000
     39       6.7061      2.00000
     40       6.7468      2.00000
     41       6.9177      2.00000
     42       7.0239      2.00000
     43       7.0329      2.00000
     44       7.0704      2.00000
     45       7.1413      2.00000
     46       7.8380      1.28691
     47       7.9567      0.35266
     48       7.9951      0.14841
     49       8.0670     -0.04405
     50       8.1495     -0.06463
     51       8.1719     -0.05559
     52       8.1881     -0.04819
     53       8.2168     -0.03523
     54       8.2641     -0.01827
     55       9.0953      0.00000
     56       9.1470      0.00000
     57       9.2728      0.00000
     58       9.3782      0.00000
     59       9.4087      0.00000
     60       9.4881      0.00000
     61       9.9876      0.00000
     62      10.0833      0.00000


--------------------------------------------------------------------------------------------------------


 soft charge-density along one line, spin component           1
         0         1         2         3         4         5         6         7         8         9
 total charge-density along one line
 
 pseudopotential strength for first ion, spin component:           1
  3.573  -0.044   0.000   0.000   0.000   0.000   0.000   0.000
 -0.044  -0.001   0.000   0.000   0.000   0.000   0.000   0.000
  0.000   0.000   0.744   0.000   0.000  -0.043   0.000   0.000
  0.000   0.000   0.000   0.744   0.000   0.000  -0.043   0.000
  0.000   0.000   0.000   0.000   0.744   0.000   0.000  -0.043
  0.000   0.000  -0.043   0.000   0.000  -0.031   0.000   0.000
  0.000   0.000   0.000  -0.043   0.000   0.000  -0.031   0.000
  0.000   0.000   0.000   0.000  -0.043   0.000   0.000  -0.031
 total augmentation occupancy for first ion, spin component:           1
  1.181  -0.047   0.000   0.000   0.000   0.000   0.000   0.000
 -0.047   0.004   0.000   0.000   0.000   0.000   0.000   0.000
  0.000   0.000   1.103   0.000   0.000   0.048   0.000   0.000
  0.000   0.000   0.000   0.633  -0.205   0.000   0.030  -0.008
  0.000   0.000   0.000  -0.205   0.633   0.000  -0.008   0.030
  0.000   0.000   0.048   0.000   0.000   0.003   0.000   0.000
  0.000   0.000   0.000   0.030  -0.008   0.000   0.002   0.000
  0.000   0.000   0.000  -0.008   0.030   0.000   0.000   0.002


------------------------ aborting loop because EDIFF is reached ----------------------------------------




--------------------------------------------------------------------------------------------------------



  FREE ENERGIE OF THE ION-ELECTRON SYSTEM (eV)
  ---------------------------------------------------
  free  energy   TOTEN  =      -112.108724 eV

  energy  without entropy=     -112.103325  energy(sigma->0) =     -112.106924
 
    CHARGE:  cpu time    1.67: real time    1.67
    FORLOC:  cpu time    0.73: real time    0.73
    FORNL :  cpu time    5.96: real time    5.97
    STRESS:  cpu time   36.49: real time    9.82
    FORCOR:  cpu time    2.54: real time    2.54
    FORHAR:  cpu time    1.14: real time    1.14
    MIXING:  cpu time    0.07: real time    0.06

  FORCE on cell =-STRESS in cart. coord.  units (eV):
  Direction    XX          YY          ZZ          XY          YZ          ZX
  --------------------------------------------------------------------------------------
  Alpha Z    -7.38313    -7.38313    -7.38313
  Ewald    -722.78478  -730.87904  -722.78478     0.00000     0.00000     1.66525
  Hartree    14.52290     3.07740    14.52290     0.00000     0.00000     3.57678
  E(xc)    -260.98166  -261.28808  -260.98166     0.00000     0.00000     0.19097
  Local     -24.30751    -4.62136   -24.30751     0.00000     0.00000    -5.34936
  n-local   577.95676   580.74582   577.95637     0.43780    -0.97929    -1.83589
  augment   -30.51004   -30.71089   -30.51003     0.00000    -0.00001     0.01073
  Kinetic   452.52089   457.14047   452.52093    -4.05378     0.30846     2.59609
  Fock        0.00000     0.00000     0.00000     0.00000     0.00000     0.00000
  -------------------------------------------------------------------------------------
  Total      -0.96673     6.08119    -0.96673     0.00000     0.00000     0.85459
  in kB      -2.92850    18.42165    -2.92850     0.00000     0.00000     2.58880
  external pressure =        4.19 kB  Pullay stress =        0.00 kB


 VOLUME and BASIS-vectors are now :
 -----------------------------------------------------------------------------
  energy-cutoff  :      300.00
  volume of cell :      528.90
      direct lattice vectors                 reciprocal lattice vectors
     8.087054000  0.000000000  0.000000000     0.123654423  0.000000000  0.000000000
     0.000000000  8.087054000  0.000000000     0.000000000  0.123654423  0.000000000
     0.000000000  0.000000000  8.087054000     0.000000000  0.000000000  0.123654423

  length of vectors
     8.087054000  8.087054000  8.087054000     0.123654423  0.123654423  0.123654423


 FORCES acting on ions
    electron-ion (+dipol)            ewald-force                    non-local-force                 convergence-correction
 -----------------------------------------------------------------------------------------------
   0.377E-03 0.560E-13 0.377E-03   -.154E-03 0.999E-15 -.154E-03   -.120E-03 0.000E+00 -.120E-03   -.111E-03 -.724E-13 -.111E-03
   -.223E+01 -.139E-12 -.223E+01   0.209E+01 -.711E-14 0.209E+01   0.122E+00 0.000E+00 0.122E+00   0.388E-02 -.739E-13 0.388E-02
   -.207E+01 0.657E-14 -.207E+01   0.192E+01 -.416E-14 0.192E+01   0.166E+00 0.000E+00 0.166E+00   0.758E-02 0.622E-13 0.758E-02
   -.240E+01 -.103E+02 -.727E+01   0.207E+01 0.103E+02 0.734E+01   0.373E+00 0.227E-01 -.289E-01   0.525E-02 0.132E-01 0.283E-02
   -.727E+01 -.103E+02 -.240E+01   0.734E+01 0.103E+02 0.207E+01   -.289E-01 0.227E-01 0.373E+00   0.282E-02 0.132E-01 0.525E-02
   0.145E+01 -.149E-13 -.226E+01   -.174E+01 0.216E-14 0.161E+01   0.322E+00 0.000E+00 0.694E+00   -.543E-02 -.887E-13 0.438E-02
   0.226E+01 -.323E-13 -.145E+01   -.161E+01 -.150E-14 0.174E+01   -.694E+00 0.000E+00 -.322E+00   -.418E-02 0.739E-13 0.525E-02
   0.194E+01 -.512E+01 -.194E+01   -.194E+01 0.504E+01 0.194E+01   -.462E-02 0.116E+00 0.465E-02   -.500E-02 0.138E-01 0.514E-02
   0.712E+01 -.124E+02 -.711E+01   -.698E+01 0.126E+02 0.698E+01   -.132E+00 -.162E+00 0.132E+00   -.571E-02 0.122E-01 0.554E-02
   -.749E+01 -.152E-12 -.749E+01   0.737E+01 -.266E-14 0.737E+01   0.145E+00 0.000E+00 0.145E+00   0.418E-02 0.695E-13 0.418E-02
   -.240E+01 0.103E+02 -.727E+01   0.207E+01 -.103E+02 0.734E+01   0.373E+00 -.227E-01 -.289E-01   0.525E-02 -.132E-01 0.283E-02
   -.727E+01 0.103E+02 -.240E+01   0.734E+01 -.103E+02 0.207E+01   -.289E-01 -.227E-01 0.373E+00   0.282E-02 -.132E-01 0.525E-02
   0.650E+01 0.101E-12 -.647E+01   -.685E+01 -.838E-14 0.649E+01   0.334E+00 -.520E-17 0.294E-01   -.368E-02 0.757E-13 0.387E-02
   0.647E+01 -.364E-12 -.650E+01   -.649E+01 0.755E-14 0.685E+01   -.293E-01 0.000E+00 -.334E+00   -.370E-02 -.920E-13 0.352E-02
   0.194E+01 0.512E+01 -.194E+01   -.194E+01 -.504E+01 0.194E+01   -.462E-02 -.116E+00 0.465E-02   -.500E-02 -.138E-01 0.514E-02
   0.712E+01 0.124E+02 -.711E+01   -.698E+01 -.126E+02 0.698E+01   -.132E+00 0.162E+00 0.132E+00   -.571E-02 -.122E-01 0.554E-02
   -.226E+01 0.125E-12 0.145E+01   0.161E+01 -.216E-14 -.174E+01   0.694E+00 0.000E+00 0.322E+00   0.438E-02 0.225E-12 -.543E-02
   -.145E+01 0.167E-13 0.226E+01   0.174E+01 0.105E-14 -.161E+01   -.322E+00 0.000E+00 -.694E+00   0.525E-02 -.377E-14 -.418E-02
   -.711E+01 -.124E+02 0.712E+01   0.698E+01 0.126E+02 -.698E+01   0.132E+00 -.162E+00 -.132E+00   0.554E-02 0.122E-01 -.571E-02
   -.194E+01 -.512E+01 0.194E+01   0.194E+01 0.504E+01 -.194E+01   0.465E-02 0.116E+00 -.462E-02   0.514E-02 0.138E-01 -.500E-02
   0.207E+01 -.570E-13 0.207E+01   -.192E+01 -.222E-15 -.192E+01   -.166E+00 0.000E+00 -.166E+00   -.776E-02 0.146E-12 -.776E-02
   0.223E+01 -.218E-12 0.223E+01   -.209E+01 -.138E-13 -.209E+01   -.122E+00 0.000E+00 -.122E+00   -.371E-02 0.107E-12 -.371E-02
   0.726E+01 -.103E+02 0.240E+01   -.734E+01 0.103E+02 -.207E+01   0.290E-01 0.226E-01 -.372E+00   -.258E-02 0.132E-01 -.542E-02
   0.240E+01 -.103E+02 0.726E+01   -.207E+01 0.103E+02 -.734E+01   -.372E+00 0.226E-01 0.290E-01   -.542E-02 0.132E-01 -.258E-02
   -.647E+01 -.511E-13 0.650E+01   0.649E+01 0.444E-15 -.685E+01   0.294E-01 0.000E+00 0.334E+00   0.387E-02 -.224E-12 -.369E-02
   -.650E+01 -.137E-12 0.647E+01   0.685E+01 -.202E-13 -.649E+01   -.334E+00 -.520E-17 -.293E-01   0.352E-02 -.187E-13 -.370E-02
   -.711E+01 0.124E+02 0.712E+01   0.698E+01 -.126E+02 -.698E+01   0.132E+00 0.162E+00 -.132E+00   0.554E-02 -.122E-01 -.571E-02
   -.194E+01 0.512E+01 0.194E+01   0.194E+01 -.504E+01 -.194E+01   0.465E-02 -.116E+00 -.462E-02   0.514E-02 -.138E-01 -.500E-02
   0.749E+01 -.635E-13 0.749E+01   -.737E+01 0.151E-13 -.737E+01   -.145E+00 0.000E+00 -.145E+00   -.400E-02 -.116E-12 -.400E-02
   0.726E+01 0.103E+02 0.240E+01   -.734E+01 -.103E+02 -.207E+01   0.290E-01 -.226E-01 -.372E+00   -.258E-02 -.132E-01 -.542E-02
   0.240E+01 0.103E+02 0.726E+01   -.207E+01 -.103E+02 -.734E+01   -.372E+00 -.226E-01 0.290E-01   -.542E-02 -.132E-01 -.258E-02
 -----------------------------------------------------------------------------------------------
   -.515E-04 -.808E-12 -.515E-04   0.444E-15 -.178E-13 -.906E-13   -.151E-03 -.347E-17 -.151E-03   0.158E-03 0.169E-12 0.158E-03
 
 
 POSITION                                       TOTAL-FORCE (eV/Angst)
 -----------------------------------------------------------------------------------
      3.03264      4.04353      3.03264        -0.000006      0.000000     -0.000006
      8.09424      0.00000      8.09424        -0.015814      0.000000     -0.015814
      1.99643      0.00000      1.99643         0.019101      0.000000      0.019101
      2.01748      2.06656      8.12625         0.048769      0.070837      0.043775
      8.12625      2.06656      2.01748         0.043775      0.070837      0.048769
      4.04538      0.00000      7.97591         0.026202      0.000000      0.047882
      6.17644      0.00000      2.01992        -0.047878      0.000000     -0.026189
      6.09403      1.99970      8.05831        -0.013976      0.054473      0.014000
      4.13603      1.84461      1.92927         0.000091     -0.024085     -0.000092
      8.08681      4.04353      8.08681         0.030046      0.000000      0.030046
      2.01748      6.02049      8.12625         0.048769     -0.070837      0.043775
      8.12625      6.02049      2.01748         0.043775     -0.070837      0.048769
      4.03358      4.04353      0.02598        -0.018867      0.000000      0.050398
      6.03929      4.04353      2.03173        -0.050394      0.000000      0.018838
      6.09403      6.08736      8.05831        -0.013976     -0.054473      0.014000
      4.13603      6.24245      1.92927         0.000091      0.024085     -0.000092
      7.97591      0.00000      4.04538         0.047882      0.000000      0.026202
      2.01992      0.00000      6.17644        -0.026189      0.000000     -0.047878
      1.92927      1.84461      4.13603        -0.000092     -0.024085      0.000091
      8.05831      1.99970      6.09403         0.014000      0.054473     -0.013976
      4.06887      0.00000      4.06887        -0.019096      0.000000     -0.019096
      6.05809      0.00000      6.05809         0.015806      0.000000      0.015806
      6.02609      2.06657      4.04780        -0.043808      0.070833     -0.048719
      4.04780      2.06657      6.02609        -0.048719      0.070833     -0.043808
      0.02598      4.04353      4.03358         0.050398      0.000000     -0.018867
      2.03173      4.04353      6.03929         0.018838      0.000000     -0.050394
      1.92927      6.24245      4.13603        -0.000092      0.024085      0.000091
      8.05831      6.08736      6.09403         0.014000     -0.054473     -0.013976
      6.06555      4.04353      6.06555        -0.030109      0.000000     -0.030109
      6.02609      6.02049      4.04780        -0.043808     -0.070833     -0.048719
      4.04780      6.02049      6.02609        -0.048719     -0.070833     -0.043808
 -----------------------------------------------------------------------------------
    total drift:                               -0.000044      0.000000     -0.000044
 d Force = 0.1970493E-01[ 0.130E-01, 0.264E-01]  d Energy = 0.1985739E-01-0.152E-03
 d Force = 0.2441088E+01[ 0.236E+01, 0.252E+01]  d Ewald  = 0.2441084E+01 0.427E-05


--------------------------------------------------------------------------------------------------------


    POTLOK:  cpu time    2.11: real time    2.05


--------------------------------------------------------------------------------------------------------


 NEB: the previous image is higher in energy: F
 NEB: the next image is higher in energy    : F
 NEB: image is at an extrema
 NEB: diff energy (min, max):   112.108724  112.108724

 NEB: Tangent
 ----------------------------------------------
      0.70417      0.00000      0.70417
     -0.00194      0.00000     -0.00194
      0.00298      0.00000      0.00298
      0.00462      0.01479      0.01566
      0.01566      0.01479      0.00462
      0.00146      0.00000      0.00145
      0.00142      0.00000      0.00147
     -0.00343      0.00002     -0.00342
     -0.01339      0.00004     -0.01337
      0.01628      0.00000      0.01628
      0.00462     -0.01479      0.01566
      0.01566     -0.01479      0.00462
     -0.01148      0.00000      0.01766
      0.01759      0.00000     -0.01145
     -0.00343     -0.00002     -0.00342
     -0.01339     -0.00004     -0.01337
      0.00145      0.00000      0.00146
      0.00147      0.00000      0.00142
     -0.01337      0.00004     -0.01339
     -0.00342      0.00002     -0.00343
      0.00300      0.00000      0.00300
     -0.00196      0.00000     -0.00196
      0.01563     -0.01477      0.00462
      0.00462     -0.01477      0.01563
      0.01766      0.00000     -0.01148
     -0.01145      0.00000      0.01759
     -0.01337     -0.00004     -0.01339
     -0.00342     -0.00002     -0.00343
      0.01628      0.00000      0.01628
      0.01563      0.01477      0.00462
      0.00462      0.01477      0.01563

 NEB: forces: par spring, perp REAL, dneb     0.000002    0.346147    0.000000
 NEB: distance to prev, next image, angle between     1.380982    1.380981  143.507252
 NEB: projections on to tangent (spring, REAL)    -0.000002    0.000013

  FORCES: max atom, RMS     0.096501    0.062170
  FORCE total and by dimension    0.346147    0.070836
 Quasi-Newton relaxation of ions (Broydens 2nd method)
  g(Force)  = 0.578E-02   g(Stress)= 0.000E+00

 retain information from N=  1 steps
 eigenvalues of (default step * inverse Hessian matrix)
  average eigenvalue of G=   3.5093
 eigenvalue spectrum of G is  3.5093


--------------------------------------------------------------------------------------------------------


  
 reached required accuracy - stopping structural energy minimisation
     LOOP+:  cpu time  205.43: real time   83.17
    4ORBIT:  cpu time    0.00: real time    0.00

 total amount of memory used by VASP on root node 133132. kBytes
========================================================================

   base      :    30000. kBytes
   nonl-proj :     4690. kBytes
   fftplans  :    30736. kBytes
   grid      :    54743. kBytes
   one-center:       95. kBytes
   wavefun   :    12868. kBytes
 
  
  
 General timing and accounting informations for this job:
 ========================================================
  
                  Total CPU time used (sec):     1590.455
                            User time (sec):     1575.115
                          System time (sec):       15.341
                         Elapsed time (sec):      620.112
  
                   Maximum memory used (kb):           0.
                   Average memory used (kb):           0.
  
                          Minor page faults:       315502
                          Major page faults:            0
                 Voluntary context switches:         8979
