Processors received = 12
script running on host compute-1-32.local
PBS_NODEFILE
compute-1-32
compute-1-32
compute-1-32
compute-1-32
compute-1-32
compute-1-32
compute-1-32
compute-1-32
compute-1-32
compute-1-32
compute-1-32
compute-1-32
 running on   12 nodes
 each image running on   12 nodes
 distr:  one band on    1 nodes,   12 groups
 vasp.5.2.2 15Apr09 complex 
 POSCAR found type information on POSCAR  Al Mg
 01/POSCAR found :  2 types and   31 ions

 ----------------------------------------------------------------------------- 
|                                                                             |
|  ADVICE TO THIS USER RUNNING 'VASP/VAMP'   (HEAR YOUR MASTER'S VOICE ...):  |
|                                                                             |
|      You have a (more or less) 'large supercell' and for larger cells       |
|      it might be more efficient to use real space projection operators      |
|      So try LREAL= Auto  in the INCAR   file.                               |
|      Mind: If you want to do a very accurate calculations keep the          |
|      reciprocal projection scheme          (i.e. LREAL=.FALSE.)             |
|                                                                             |
 ----------------------------------------------------------------------------- 

 LDA part: xc-table for Pade appr. of Perdew
 POSCAR found type information on POSCAR  Al Mg
 00/POSCAR found :  2 types and   31 ions
 POSCAR found type information on POSCAR  Al Mg
 02/POSCAR found :  2 types and   31 ions
 POSCAR, INCAR and KPOINTS ok, starting setup
 FFT: planning ...(           1 )
 reading WAVECAR
 entering main loop
       N       E                     dE             d eps       ncg     rms          rms(c)
RMM:   1     0.227105640026E+03    0.22711E+03   -0.15504E+04   144   0.532E+02
RMM:   2    -0.384423762510E+02   -0.26555E+03   -0.25696E+03   144   0.110E+02
RMM:   3    -0.937107033586E+02   -0.55268E+02   -0.54378E+02   144   0.361E+01
RMM:   4    -0.106400344218E+03   -0.12690E+02   -0.11133E+02   144   0.201E+01
RMM:   5    -0.110808078474E+03   -0.44077E+01   -0.33545E+01   144   0.101E+01
RMM:   6    -0.112343588093E+03   -0.15355E+01   -0.11319E+01   144   0.578E+00
RMM:   7    -0.112848784056E+03   -0.50520E+00   -0.40486E+00   144   0.326E+00
RMM:   8    -0.113034763249E+03   -0.18598E+00   -0.15434E+00   144   0.194E+00
RMM:   9    -0.113141718722E+03   -0.10696E+00   -0.96729E-01   326   0.116E+00
RMM:  10    -0.113157004339E+03   -0.15286E-01   -0.10921E-01   304   0.319E-01
RMM:  11    -0.113157713811E+03   -0.70947E-03   -0.41904E-03   250   0.692E-02
RMM:  12    -0.113157734544E+03   -0.20734E-04   -0.18453E-04   175   0.216E-02    0.582E+00
RMM:  13    -0.111782295651E+03    0.13754E+01   -0.29693E+00   288   0.199E+00    0.337E+00
RMM:  14    -0.111540975028E+03    0.24132E+00   -0.22769E-01   288   0.806E-01    0.202E+00
RMM:  15    -0.111433009216E+03    0.10797E+00   -0.91722E-02   289   0.599E-01    0.424E-01
RMM:  16    -0.111426206989E+03    0.68022E-02   -0.87426E-03   290   0.181E-01    0.789E-02
RMM:  17    -0.111425893448E+03    0.31354E-03   -0.10588E-03   284   0.624E-02    0.253E-02
RMM:  18    -0.111425894484E+03   -0.10356E-05   -0.81545E-05   193   0.221E-02
   1 F= -.11142589E+03 E0= -.11141697E+03  d E =-.111426E+03
 BRION: g(F)=  0.509E+00 g(S)=  0.000E+00
 bond charge predicted
       N       E                     dE             d eps       ncg     rms          rms(c)
RMM:   1    -0.111853169731E+03   -0.42728E+00   -0.33247E+00   288   0.467E+00    0.435E-01
RMM:   2    -0.111831587975E+03    0.21582E-01   -0.54518E-02   292   0.589E-01    0.153E-01
RMM:   3    -0.111830441043E+03    0.11469E-02   -0.45784E-03   288   0.154E-01    0.704E-02
RMM:   4    -0.111830409625E+03    0.31418E-04   -0.38590E-04   239   0.474E-02
   2 F= -.11183041E+03 E0= -.11182578E+03  d E =-.404515E+00
 BRION: g(F)=  0.187E+00 g(S)=  0.000E+00 retain N=  1 mean eig= 2.31
 eig:   2.306
 bond charge predicted
       N       E                     dE             d eps       ncg     rms          rms(c)
RMM:   1    -0.112124306036E+03   -0.29386E+00   -0.61161E+00   288   0.642E+00    0.552E-01
RMM:   2    -0.112089951691E+03    0.34354E-01   -0.93276E-02   291   0.794E-01    0.206E-01
RMM:   3    -0.112088443852E+03    0.15078E-02   -0.70171E-03   288   0.202E-01    0.102E-01
RMM:   4    -0.112088439929E+03    0.39231E-05   -0.75969E-04   286   0.652E-02
   3 F= -.11208844E+03 E0= -.11208707E+03  d E =-.258030E+00
 BRION: g(F)=  0.159E-01 g(S)=  0.000E+00 retain N=  1 mean eig= 2.71
 eig:   2.715
 bond charge predicted
       N       E                     dE             d eps       ncg     rms          rms(c)
RMM:   1    -0.112110430471E+03   -0.21987E-01   -0.29477E-01   288   0.144E+00    0.122E-01
RMM:   2    -0.112108859002E+03    0.15715E-02   -0.46456E-03   288   0.179E-01    0.470E-02
RMM:   3    -0.112108833150E+03    0.25852E-04   -0.19455E-04   196   0.432E-02
   4 F= -.11210883E+03 E0= -.11210703E+03  d E =-.203932E-01
 BRION: g(F)=  0.583E-02 g(S)=  0.000E+00 retain N=  1 mean eig= 3.48
 eig:   3.479
 reached required accuracy - stopping structural energy minimisation
