    3    3    1    1
  0.1429167E+02  0.3500000E-09  0.3500000E-09  0.3500000E-09  0.1000000E-16
  1.000000000000000E-004
  CAR 
 unknown system                          
    9    2    8
 
  0.2500000E+00  0.2500000E+00  0.2500000E+00  0.5000000E+00
   1       -0.625450
   2        5.070722
   3        5.220553
   4        5.282578
   5       10.502448
   6       10.777814
   7       11.421339
   8       15.889932
 
 -0.2500000E+00  0.2500000E+00  0.2500000E+00  0.5000000E+00
   1       -0.627911
   2        5.101071
   3        5.235731
   4        5.322109
   5       10.073037
   6       10.914841
   7       11.356742
   8       15.862797
