       N       E                     dE             d eps       ncg     rms          rms(c)
DAV:   1     0.106208012010E+03    0.10621E+03   -0.26267E+04   124   0.893E+02
DAV:   2    -0.855598175883E+02   -0.19177E+03   -0.17740E+03   144   0.128E+02
DAV:   3    -0.100431398439E+03   -0.14872E+02   -0.14187E+02   160   0.263E+01
DAV:   4    -0.100947779643E+03   -0.51638E+00   -0.51009E+00   168   0.528E+00
DAV:   5    -0.100954118690E+03   -0.63390E-02   -0.63186E-02   160   0.737E-01    0.685E+00
DAV:   6    -0.995568082824E+02    0.13973E+01   -0.64440E+00   168   0.520E+00    0.412E+00
DAV:   7    -0.992606986438E+02    0.29611E+00   -0.96593E-01   152   0.268E+00    0.261E+00
DAV:   8    -0.990999772376E+02    0.16072E+00   -0.33421E-01   168   0.147E+00    0.683E-01
DAV:   9    -0.990873719841E+02    0.12605E-01   -0.39589E-02   160   0.573E-01    0.215E-01
DAV:  10    -0.990856606099E+02    0.17114E-02   -0.54536E-03   168   0.216E-01    0.869E-02
DAV:  11    -0.990854305720E+02    0.23004E-03   -0.12082E-03   160   0.897E-02    0.352E-02
DAV:  12    -0.990854261992E+02    0.43728E-05   -0.13662E-04    88   0.353E-02
   1 F= -.99085426E+02 E0= -.99084537E+02  d E =-.990854E+02
       N       E                     dE             d eps       ncg     rms          rms(c)
DAV:   1    -0.993257530376E+02   -0.24032E+00   -0.25989E+00   140   0.473E+00    0.435E-01
DAV:   2    -0.993154913822E+02    0.10262E-01   -0.13856E-01   130   0.120E+00    0.177E-01
DAV:   3    -0.993138982968E+02    0.15931E-02   -0.11283E-02   160   0.301E-01    0.689E-02
DAV:   4    -0.993138389106E+02    0.59386E-04   -0.10911E-03   160   0.999E-02    0.325E-02
DAV:   5    -0.993138384440E+02    0.46656E-06   -0.11447E-04   112   0.331E-02
   2 F= -.99313838E+02 E0= -.99312171E+02  d E =-.228412E+00
       N       E                     dE             d eps       ncg     rms          rms(c)
DAV:   1    -0.994439721788E+02   -0.13013E+00   -0.22688E+00   140   0.459E+00    0.467E-01
DAV:   2    -0.994330085428E+02    0.10964E-01   -0.15937E-01   154   0.125E+00    0.199E-01
DAV:   3    -0.994312554807E+02    0.17531E-02   -0.12938E-02   152   0.341E-01    0.986E-02
DAV:   4    -0.994310384451E+02    0.21704E-03   -0.21364E-03   160   0.127E-01    0.395E-02
DAV:   5    -0.994310458621E+02   -0.74170E-05   -0.21678E-04   120   0.452E-02
   3 F= -.99431046E+02 E0= -.99419347E+02  d E =-.117207E+00
       N       E                     dE             d eps       ncg     rms          rms(c)
DAV:   1    -0.994699506881E+02   -0.38912E-01   -0.38545E-01   132   0.192E+00    0.243E-01
DAV:   2    -0.994663160828E+02    0.36346E-02   -0.36875E-02   144   0.548E-01    0.892E-02
DAV:   3    -0.994659285024E+02    0.38758E-03   -0.28173E-03   160   0.166E-01    0.464E-02
DAV:   4    -0.994658954244E+02    0.33078E-04   -0.39988E-04   144   0.562E-02
   4 F= -.99465895E+02 E0= -.99452066E+02  d E =-.348496E-01
       N       E                     dE             d eps       ncg     rms          rms(c)
DAV:   1    -0.995341393703E+02   -0.68211E-01   -0.22239E+00   132   0.446E+00    0.599E-01
DAV:   2    -0.995125359237E+02    0.21603E-01   -0.26686E-01   144   0.128E+00    0.201E-01
DAV:   3    -0.995105552548E+02    0.19807E-02   -0.15940E-02   152   0.400E-01    0.106E-01
DAV:   4    -0.995104190480E+02    0.13621E-03   -0.27011E-03   160   0.138E-01    0.449E-02
DAV:   5    -0.995104228003E+02   -0.37522E-05   -0.28215E-04   136   0.475E-02
   5 F= -.99510423E+02 E0= -.99494527E+02  d E =-.445274E-01
       N       E                     dE             d eps       ncg     rms          rms(c)
DAV:   1    -0.995169884508E+02   -0.65694E-02   -0.90800E-02   136   0.866E-01    0.139E-01
DAV:   2    -0.995158355821E+02    0.11529E-02   -0.11103E-02   144   0.257E-01    0.401E-02
DAV:   3    -0.995157864953E+02    0.49087E-04   -0.42633E-04   160   0.679E-02
   6 F= -.99515786E+02 E0= -.99500652E+02  d E =-.536370E-02
       N       E                     dE             d eps       ncg     rms          rms(c)
DAV:   1    -0.995316149224E+02   -0.15779E-01   -0.35295E-01   124   0.178E+00    0.297E-01
DAV:   2    -0.995255657238E+02    0.60492E-02   -0.35291E-02   136   0.559E-01    0.772E-02
DAV:   3    -0.995253840123E+02    0.18171E-03   -0.19670E-03   160   0.147E-01    0.427E-02
DAV:   4    -0.995253559810E+02    0.28031E-04   -0.27602E-04   128   0.470E-02
   7 F= -.99525356E+02 E0= -.99513520E+02  d E =-.956949E-02
       N       E                     dE             d eps       ncg     rms          rms(c)
DAV:   1    -0.995304726864E+02   -0.50887E-02   -0.73193E-02   138   0.821E-01    0.140E-01
DAV:   2    -0.995290972588E+02    0.13754E-02   -0.80581E-03   144   0.260E-01    0.376E-02
DAV:   3    -0.995290506259E+02    0.46633E-04   -0.51054E-04   154   0.736E-02
   8 F= -.99529051E+02 E0= -.99519246E+02  d E =-.369464E-02
       N       E                     dE             d eps       ncg     rms          rms(c)
DAV:   1    -0.995351580090E+02   -0.60608E-02   -0.12870E-01   132   0.109E+00    0.177E-01
DAV:   2    -0.995330181746E+02    0.21398E-02   -0.13977E-02   144   0.344E-01    0.526E-02
DAV:   3    -0.995329136659E+02    0.10451E-03   -0.10067E-03   154   0.102E-01    0.285E-02
DAV:   4    -0.995329023490E+02    0.11317E-04   -0.10795E-04    88   0.332E-02
   9 F= -.99532902E+02 E0= -.99525920E+02  d E =-.385172E-02
       N       E                     dE             d eps       ncg     rms          rms(c)
DAV:   1    -0.995362409313E+02   -0.33273E-02   -0.76437E-02   132   0.843E-01    0.128E-01
DAV:   2    -0.995351183791E+02    0.11226E-02   -0.85074E-03   160   0.267E-01    0.391E-02
DAV:   3    -0.995350529751E+02    0.65404E-04   -0.62996E-04   160   0.809E-02
  10 F= -.99535053E+02 E0= -.99530100E+02  d E =-.215063E-02
       N       E                     dE             d eps       ncg     rms          rms(c)
DAV:   1    -0.995382373756E+02   -0.31190E-02   -0.10382E-01   132   0.982E-01    0.145E-01
DAV:   2    -0.995368696355E+02    0.13677E-02   -0.12363E-02   154   0.320E-01    0.497E-02
DAV:   3    -0.995367514971E+02    0.11814E-03   -0.95392E-04   160   0.996E-02    0.267E-02
DAV:   4    -0.995367457278E+02    0.57693E-05   -0.89755E-05   104   0.306E-02
  11 F= -.99536746E+02 E0= -.99533837E+02  d E =-.169275E-02
       N       E                     dE             d eps       ncg     rms          rms(c)
DAV:   1    -0.995381142671E+02   -0.13628E-02   -0.43093E-02   138   0.629E-01    0.859E-02
DAV:   2    -0.995376269897E+02    0.48728E-03   -0.53632E-03   160   0.209E-01    0.307E-02
DAV:   3    -0.995375732301E+02    0.53760E-04   -0.40507E-04   146   0.658E-02
  12 F= -.99537573E+02 E0= -.99535612E+02  d E =-.827502E-03
       N       E                     dE             d eps       ncg     rms          rms(c)
DAV:   1    -0.995393730770E+02   -0.17461E-02   -0.10417E-01   132   0.980E-01    0.130E-01
DAV:   2    -0.995382951392E+02    0.10779E-02   -0.13237E-02   160   0.330E-01    0.497E-02
DAV:   3    -0.995381458194E+02    0.14932E-03   -0.10205E-03   154   0.104E-01    0.255E-02
DAV:   4    -0.995381445773E+02    0.12421E-05   -0.88044E-05   104   0.301E-02
  13 F= -.99538145E+02 E0= -.99537517E+02  d E =-.571347E-03
       N       E                     dE             d eps       ncg     rms          rms(c)
DAV:   1    -0.995382702192E+02   -0.12440E-03   -0.20578E-03   136   0.145E-01    0.163E-02
DAV:   2    -0.995382576488E+02    0.12570E-04   -0.18752E-04   104   0.442E-02
  14 F= -.99538258E+02 E0= -.99537542E+02  d E =-.113072E-03
