  31  31   0   0
  0.1706119E+02  0.8087054E-09  0.8087054E-09  0.8087054E-09  0.5000000E-15
  1.000000000000000E-004
  CAR 
 unknown system                          
     12.02999114     -4.93475012  301      7.87746312      1.00000000
     -4.935  0.0000E+00  0.0000E+00
     -4.878  0.0000E+00  0.0000E+00
     -4.822  0.0000E+00  0.0000E+00
     -4.765  0.0000E+00  0.0000E+00
     -4.709  0.0000E+00  0.0000E+00
     -4.652  0.0000E+00  0.0000E+00
     -4.595  0.0000E+00  0.0000E+00
     -4.539 -0.4816E-28 -0.2724E-29
     -4.482 -0.3954E-26 -0.2263E-27
     -4.426 -0.2790E-24 -0.1600E-25
     -4.369 -0.1675E-22 -0.9629E-24
     -4.313 -0.8549E-21 -0.4931E-22
     -4.256 -0.3712E-19 -0.2148E-20
     -4.200 -0.1370E-17 -0.7961E-19
     -4.143 -0.4297E-16 -0.2509E-17
     -4.087 -0.1114E-14 -0.6552E-16
     -4.030 -0.2505E-13 -0.1482E-14
     -3.973 -0.4797E-12 -0.2861E-13
     -3.917 -0.7785E-11 -0.4688E-12
     -3.860 -0.1070E-09 -0.6520E-11
     -3.804 -0.1245E-08 -0.7691E-10
     -3.747 -0.1223E-07 -0.7688E-09
     -3.691 -0.1015E-06 -0.6506E-08
     -3.634 -0.7081E-06 -0.4655E-07
     -3.578 -0.4146E-05 -0.2810E-06
     -3.521 -0.2028E-04 -0.1428E-05
     -3.464 -0.8235E-04 -0.6085E-05
     -3.408 -0.2747E-03 -0.2162E-04
     -3.351 -0.7391E-03 -0.6341E-04
     -3.295 -0.1548E-02 -0.1510E-03
     -3.238 -0.2304E-02 -0.2812E-03
     -3.182 -0.1589E-02 -0.3711E-03
     -3.125  0.2967E-02 -0.2034E-03
     -3.069  0.1309E-01  0.5368E-03
     -3.012  0.2723E-01  0.2077E-02
     -2.956  0.3967E-01  0.4320E-02
     -2.899  0.4372E-01  0.6793E-02
     -2.842  0.3696E-01  0.8882E-02
     -2.786  0.2336E-01  0.1020E-01
     -2.729  0.9871E-02  0.1076E-01
     -2.673  0.1250E-02  0.1083E-01
     -2.616 -0.2048E-02  0.1072E-01
     -2.560 -0.2168E-02  0.1059E-01
     -2.503 -0.1317E-02  0.1052E-01
     -2.447 -0.6214E-03  0.1048E-01
     -2.390 -0.3667E-03  0.1046E-01
     -2.333 -0.6045E-03  0.1043E-01
     -2.277 -0.1496E-02  0.1034E-01
     -2.220 -0.3154E-02  0.1017E-01
     -2.164 -0.4851E-02  0.9892E-02
     -2.107 -0.3913E-02  0.9671E-02
     -2.051  0.4305E-02  0.9914E-02
     -1.994  0.2364E-01  0.1125E-01
     -1.938  0.5240E-01  0.1421E-01
     -1.881  0.8156E-01  0.1883E-01
     -1.825  0.9957E-01  0.2446E-01
     -1.768  0.1002E+00  0.3013E-01
     -1.711  0.8596E-01  0.3499E-01
     -1.655  0.6380E-01  0.3859E-01
     -1.598  0.4044E-01  0.4088E-01
     -1.542  0.2044E-01  0.4204E-01
     -1.485  0.6437E-02  0.4240E-01
     -1.429 -0.9237E-03  0.4235E-01
     -1.372 -0.3126E-02  0.4217E-01
     -1.316 -0.2688E-02  0.4202E-01
     -1.259 -0.1728E-02  0.4192E-01
     -1.203 -0.1387E-02  0.4184E-01
     -1.146 -0.2085E-02  0.4173E-01
     -1.089 -0.3671E-02  0.4152E-01
     -1.033 -0.4773E-02  0.4125E-01
     -0.976 -0.1928E-02  0.4114E-01
     -0.920  0.9605E-02  0.4168E-01
     -0.863  0.3192E-01  0.4349E-01
     -0.807  0.5986E-01  0.4687E-01
     -0.750  0.8179E-01  0.5150E-01
     -0.694  0.8796E-01  0.5647E-01
     -0.637  0.7900E-01  0.6094E-01
     -0.580  0.6442E-01  0.6458E-01
     -0.524  0.5251E-01  0.6755E-01
     -0.467  0.4363E-01  0.7002E-01
     -0.411  0.3364E-01  0.7192E-01
     -0.354  0.2112E-01  0.7312E-01
     -0.298  0.9064E-02  0.7363E-01
     -0.241  0.1021E-02  0.7369E-01
     -0.185 -0.2304E-02  0.7356E-01
     -0.128 -0.2779E-02  0.7340E-01
     -0.072 -0.2782E-02  0.7324E-01
     -0.015 -0.3801E-02  0.7303E-01
      0.042 -0.5778E-02  0.7270E-01
      0.098 -0.6266E-02  0.7235E-01
      0.155  0.1008E-03  0.7235E-01
      0.211  0.1952E-01  0.7345E-01
      0.268  0.5328E-01  0.7647E-01
      0.324  0.9271E-01  0.8171E-01
      0.381  0.1218E+00  0.8860E-01
      0.437  0.1285E+00  0.9586E-01
      0.494  0.1135E+00  0.1023E+00
      0.551  0.8831E-01  0.1073E+00
      0.607  0.6374E-01  0.1109E+00
      0.664  0.4339E-01  0.1133E+00
      0.720  0.2630E-01  0.1148E+00
      0.777  0.1222E-01  0.1155E+00
      0.833  0.2541E-02  0.1157E+00
      0.890 -0.2182E-02  0.1155E+00
      0.946 -0.3450E-02  0.1153E+00
      1.003 -0.3792E-02  0.1151E+00
      1.059 -0.5155E-02  0.1148E+00
      1.116 -0.7656E-02  0.1144E+00
      1.173 -0.8312E-02  0.1139E+00
      1.229 -0.3740E-03  0.1139E+00
      1.286  0.2422E-01  0.1153E+00
      1.342  0.6823E-01  0.1191E+00
      1.399  0.1227E+00  0.1261E+00
      1.455  0.1682E+00  0.1356E+00
      1.512  0.1853E+00  0.1461E+00
      1.568  0.1669E+00  0.1555E+00
      1.625  0.1224E+00  0.1624E+00
      1.681  0.7210E-01  0.1665E+00
      1.738  0.3546E-01  0.1685E+00
      1.795  0.2157E-01  0.1697E+00
      1.851  0.2590E-01  0.1712E+00
      1.908  0.3534E-01  0.1732E+00
      1.964  0.3797E-01  0.1753E+00
      2.021  0.3038E-01  0.1771E+00
      2.077  0.1731E-01  0.1780E+00
      2.134  0.5561E-02  0.1783E+00
      2.190 -0.1497E-02  0.1783E+00
      2.247 -0.4726E-02  0.1780E+00
      2.304 -0.6341E-02  0.1776E+00
      2.360 -0.6561E-02  0.1773E+00
      2.417 -0.2038E-02  0.1771E+00
      2.473  0.1264E-01  0.1779E+00
      2.530  0.4017E-01  0.1801E+00
      2.586  0.7534E-01  0.1844E+00
      2.643  0.1051E+00  0.1903E+00
      2.699  0.1160E+00  0.1969E+00
      2.756  0.1033E+00  0.2027E+00
      2.812  0.7391E-01  0.2069E+00
      2.869  0.4093E-01  0.2092E+00
      2.926  0.1521E-01  0.2101E+00
      2.982  0.7949E-03  0.2101E+00
      3.039 -0.4284E-02  0.2099E+00
      3.095 -0.4475E-02  0.2096E+00
      3.152 -0.3663E-02  0.2094E+00
      3.208 -0.4071E-02  0.2092E+00
      3.265 -0.6236E-02  0.2089E+00
      3.321 -0.8540E-02  0.2084E+00
      3.378 -0.6053E-02  0.2080E+00
      3.435  0.9317E-02  0.2086E+00
      3.491  0.4467E-01  0.2111E+00
      3.548  0.9845E-01  0.2166E+00
      3.604  0.1554E+00  0.2254E+00
      3.661  0.1914E+00  0.2363E+00
      3.717  0.1889E+00  0.2469E+00
      3.774  0.1506E+00  0.2555E+00
      3.830  0.9847E-01  0.2610E+00
      3.887  0.5774E-01  0.2643E+00
      3.943  0.3896E-01  0.2665E+00
      4.000  0.3501E-01  0.2685E+00
      4.057  0.3246E-01  0.2703E+00
      4.113  0.2418E-01  0.2717E+00
      4.170  0.1192E-01  0.2723E+00
      4.226  0.4795E-03  0.2724E+00
      4.283 -0.7667E-02  0.2719E+00
      4.339 -0.1188E-01  0.2713E+00
      4.396 -0.9140E-02  0.2708E+00
      4.452  0.7909E-02  0.2712E+00
      4.509  0.4619E-01  0.2738E+00
      4.566  0.1028E+00  0.2796E+00
      4.622  0.1608E+00  0.2887E+00
      4.679  0.1980E+00  0.2999E+00
      4.735  0.2045E+00  0.3115E+00
      4.792  0.1895E+00  0.3222E+00
      4.848  0.1696E+00  0.3318E+00
      4.905  0.1514E+00  0.3404E+00
      4.961  0.1300E+00  0.3477E+00
      5.018  0.1017E+00  0.3535E+00
      5.074  0.7300E-01  0.3576E+00
      5.131  0.5259E-01  0.3606E+00
      5.188  0.4146E-01  0.3629E+00
      5.244  0.3315E-01  0.3648E+00
      5.301  0.2239E-01  0.3660E+00
      5.357  0.9811E-02  0.3666E+00
      5.414 -0.8118E-03  0.3665E+00
      5.470 -0.6393E-02  0.3662E+00
      5.527 -0.4623E-02  0.3659E+00
      5.583  0.7285E-02  0.3663E+00
      5.640  0.3048E-01  0.3681E+00
      5.696  0.5965E-01  0.3714E+00
      5.753  0.8220E-01  0.3761E+00
      5.810  0.8562E-01  0.3809E+00
      5.866  0.6766E-01  0.3848E+00
      5.923  0.3869E-01  0.3869E+00
      5.979  0.1394E-01  0.3877E+00
      6.036  0.3652E-02  0.3879E+00
      6.092  0.8980E-02  0.3884E+00
      6.149  0.2359E-01  0.3898E+00
      6.205  0.3759E-01  0.3919E+00
      6.262  0.4243E-01  0.3943E+00
      6.319  0.3539E-01  0.3963E+00
      6.375  0.2043E-01  0.3975E+00
      6.432  0.4540E-02  0.3977E+00
      6.488 -0.6270E-02  0.3974E+00
      6.545 -0.7432E-02  0.3969E+00
      6.601  0.5530E-02  0.3973E+00
      6.658  0.3497E-01  0.3992E+00
      6.714  0.7607E-01  0.4035E+00
      6.771  0.1167E+00  0.4101E+00
      6.827  0.1463E+00  0.4184E+00
      6.884  0.1647E+00  0.4277E+00
      6.941  0.1777E+00  0.4378E+00
      6.997  0.1840E+00  0.4482E+00
      7.054  0.1727E+00  0.4579E+00
      7.110  0.1364E+00  0.4657E+00
      7.167  0.8411E-01  0.4704E+00
      7.223  0.3512E-01  0.4724E+00
      7.280  0.3919E-02  0.4726E+00
      7.336 -0.8310E-02  0.4721E+00
      7.393 -0.9341E-02  0.4716E+00
      7.450 -0.7497E-02  0.4712E+00
      7.506 -0.7040E-02  0.4708E+00
      7.563 -0.7561E-02  0.4704E+00
      7.619 -0.4589E-02  0.4701E+00
      7.676  0.8647E-02  0.4706E+00
      7.732  0.3635E-01  0.4727E+00
      7.789  0.7390E-01  0.4768E+00
      7.845  0.1078E+00  0.4829E+00
      7.902  0.1261E+00  0.4901E+00
      7.958  0.1314E+00  0.4975E+00
      8.015  0.1398E+00  0.5054E+00
      8.072  0.1629E+00  0.5146E+00
      8.128  0.1934E+00  0.5255E+00
      8.185  0.2094E+00  0.5374E+00
      8.241  0.1949E+00  0.5484E+00
      8.298  0.1522E+00  0.5570E+00
      8.354  0.9823E-01  0.5626E+00
      8.411  0.5025E-01  0.5654E+00
      8.467  0.1747E-01  0.5664E+00
      8.524  0.3331E-03  0.5664E+00
      8.580 -0.5594E-02  0.5661E+00
      8.637 -0.5766E-02  0.5658E+00
      8.694 -0.4493E-02  0.5655E+00
      8.750 -0.4269E-02  0.5653E+00
      8.807 -0.5741E-02  0.5650E+00
      8.863 -0.7239E-02  0.5645E+00
      8.920 -0.3940E-02  0.5643E+00
      8.976  0.1106E-01  0.5649E+00
      9.033  0.4147E-01  0.5673E+00
      9.089  0.8124E-01  0.5719E+00
      9.146  0.1151E+00  0.5784E+00
      9.203  0.1305E+00  0.5858E+00
      9.259  0.1298E+00  0.5931E+00
      9.316  0.1268E+00  0.6003E+00
      9.372  0.1299E+00  0.6076E+00
      9.429  0.1311E+00  0.6150E+00
      9.485  0.1162E+00  0.6216E+00
      9.542  0.8217E-01  0.6263E+00
      9.598  0.4119E-01  0.6286E+00
      9.655  0.8616E-02  0.6291E+00
      9.711 -0.8220E-02  0.6286E+00
      9.768 -0.9839E-02  0.6281E+00
      9.825  0.1693E-02  0.6282E+00
      9.881  0.2486E-01  0.6296E+00
      9.938  0.5456E-01  0.6326E+00
      9.994  0.7933E-01  0.6371E+00
     10.051  0.8664E-01  0.6420E+00
     10.107  0.7260E-01  0.6461E+00
     10.164  0.4552E-01  0.6487E+00
     10.220  0.1907E-01  0.6498E+00
     10.277  0.2311E-02  0.6499E+00
     10.334 -0.4040E-02  0.6497E+00
     10.390 -0.4236E-02  0.6495E+00
     10.447 -0.2555E-02  0.6493E+00
     10.503 -0.1137E-02  0.6492E+00
     10.560 -0.3995E-03  0.6492E+00
     10.616 -0.1141E-03  0.6492E+00
     10.673 -0.2689E-04  0.6492E+00
     10.729 -0.5278E-05  0.6492E+00
     10.786 -0.8677E-06  0.6492E+00
     10.842 -0.1200E-06  0.6492E+00
     10.899 -0.1398E-07  0.6492E+00
     10.956 -0.1377E-08  0.6492E+00
     11.012 -0.1148E-09  0.6492E+00
     11.069 -0.8111E-11  0.6492E+00
     11.125 -0.4860E-12  0.6492E+00
     11.182 -0.2471E-13  0.6492E+00
     11.238 -0.1069E-14  0.6492E+00
     11.295 -0.4112E-16  0.6492E+00
     11.351  0.0000E+00  0.6492E+00
     11.408  0.0000E+00  0.6492E+00
     11.464  0.0000E+00  0.6492E+00
     11.521  0.0000E+00  0.6492E+00
     11.578  0.0000E+00  0.6492E+00
     11.634  0.0000E+00  0.6492E+00
     11.691  0.0000E+00  0.6492E+00
     11.747  0.0000E+00  0.6492E+00
     11.804  0.0000E+00  0.6492E+00
     11.860  0.0000E+00  0.6492E+00
     11.917  0.0000E+00  0.6492E+00
     11.973  0.0000E+00  0.6492E+00
     12.030  0.0000E+00  0.6492E+00
