   31   31  191    1
  0.1706119E+02  0.8087054E-09  0.8087054E-09  0.8087054E-09  0.5000000E-15
  1.000000000000000E-004
  CAR 
 unknown system                          
   93    2   62
 
  0.2500000E+00  0.2500000E+00  0.2500000E+00  0.5000000E+00
   1       -2.934749
   2       -1.861107
   3       -1.858211
   4       -1.686391
   5       -0.746107
   6       -0.742993
   7       -0.496721
   8        0.357584
   9        0.360266
  10        0.427894
  11        0.604757
  12        1.426176
  13        1.427966
  14        1.455573
  15        1.561066
  16        1.565246
  17        1.908724
  18        2.632958
  19        2.635394
  20        2.753358
  21        3.593602
  22        3.596066
  23        3.695477
  24        3.695919
  25        3.697279
  26        3.988637
  27        4.620435
  28        4.622449
  29        4.652876
  30        4.716415
  31        4.719047
  32        4.908069
  33        4.911074
  34        4.917730
  35        5.174551
  36        5.761174
  37        5.764219
  38        6.224641
  39        6.775845
  40        6.791682
  41        6.793811
  42        6.970855
  43        7.023782
  44        7.029462
  45        7.032112
  46        7.834228
  47        7.880073
  48        7.881988
  49        8.096393
  50        8.098459
  51        8.158363
  52        8.193883
  53        8.194947
  54        8.318007
  55        9.148031
  56        9.149810
  57        9.179513
  58        9.408494
  59        9.409717
  60        9.435332
  61       10.001179
  62       10.019533
 
 -0.2500000E+00  0.2500000E+00  0.2500000E+00  0.5000000E+00
   1       -2.934750
   2       -1.861199
   3       -1.858314
   4       -1.686107
   5       -0.746075
   6       -0.743172
   7       -0.496522
   8        0.357152
   9        0.360166
  10        0.426672
  11        0.606045
  12        1.426613
  13        1.429290
  14        1.453598
  15        1.563076
  16        1.565232
  17        1.907992
  18        2.633203
  19        2.635051
  20        2.752156
  21        3.592505
  22        3.595143
  23        3.695803
  24        3.696642
  25        3.697503
  26        3.990575
  27        4.620290
  28        4.623572
  29        4.650643
  30        4.716993
  31        4.718758
  32        4.909808
  33        4.911960
  34        4.914950
  35        5.174907
  36        5.761316
  37        5.764317
  38        6.224508
  39        6.775103
  40        6.791859
  41        6.793949
  42        6.971180
  43        7.024611
  44        7.030522
  45        7.032160
  46        7.833677
  47        7.879966
  48        7.882691
  49        8.094807
  50        8.097301
  51        8.154980
  52        8.194555
  53        8.197049
  54        8.318933
  55        9.147802
  56        9.150248
  57        9.179177
  58        9.407577
  59        9.410056
  60        9.435290
  61        9.999937
  62       10.029991
