       N       E                     dE             d eps       ncg     rms          rms(c)
RMM:   1     0.306303103835E+03    0.30630E+03   -0.16896E+04   124   0.644E+02
RMM:   2    -0.881050139893E+01   -0.31511E+03   -0.30926E+03   124   0.137E+02
RMM:   3    -0.838915252511E+02   -0.75081E+02   -0.76880E+02   124   0.468E+01
RMM:   4    -0.103473048138E+03   -0.19582E+02   -0.19271E+02   124   0.274E+01
RMM:   5    -0.110336427914E+03   -0.68634E+01   -0.59654E+01   124   0.149E+01
RMM:   6    -0.113104370731E+03   -0.27679E+01   -0.22779E+01   124   0.863E+00
RMM:   7    -0.114287157623E+03   -0.11828E+01   -0.98497E+00   124   0.522E+00
RMM:   8    -0.114822305255E+03   -0.53515E+00   -0.45955E+00   124   0.325E+00
RMM:   9    -0.115315091333E+03   -0.49279E+00   -0.46069E+00   297   0.209E+00
RMM:  10    -0.115405291836E+03   -0.90201E-01   -0.43607E-01   301   0.445E-01
RMM:  11    -0.115427498603E+03   -0.22207E-01   -0.45389E-02   275   0.105E-01
RMM:  12    -0.115428654020E+03   -0.11554E-02   -0.25406E-03   249   0.269E-02    0.536E+00
RMM:  13    -0.114892546634E+03    0.53611E+00   -0.51564E-01   248   0.117E+00    0.329E+00
RMM:  14    -0.114627170975E+03    0.26538E+00   -0.22851E-01   250   0.105E+00    0.891E-01
RMM:  15    -0.114603798506E+03    0.23372E-01   -0.23979E-02   261   0.371E-01    0.127E-01
RMM:  16    -0.114603154510E+03    0.64400E-03   -0.35337E-03   257   0.122E-01    0.382E-02
RMM:  17    -0.114603190159E+03   -0.35648E-04   -0.35196E-04   274   0.447E-02    0.936E-03
RMM:  18    -0.114603203275E+03   -0.13116E-04   -0.36397E-05   284   0.150E-02    0.399E-03
RMM:  19    -0.114603206784E+03   -0.35092E-05   -0.46130E-06   206   0.598E-03    0.975E-04
RMM:  20    -0.114603206962E+03   -0.17853E-06   -0.63772E-07   140   0.261E-03
   1 F= -.11460321E+03 E0= -.11458647E+03  d E =-.502143E-01
       N       E                     dE             d eps       ncg     rms          rms(c)
RMM:   1    -0.114602507288E+03    0.69950E-03   -0.25445E-02   248   0.493E-01    0.337E-02
RMM:   2    -0.114602451977E+03    0.55311E-04   -0.37496E-04   258   0.585E-02    0.180E-02
RMM:   3    -0.114602440670E+03    0.11307E-04   -0.75123E-05   251   0.194E-02    0.627E-03
RMM:   4    -0.114602440855E+03   -0.18548E-06   -0.71647E-06   221   0.542E-03
   2 F= -.11460244E+03 E0= -.11458565E+03  d E =-.503749E-01
       N       E                     dE             d eps       ncg     rms          rms(c)
RMM:   1    -0.114603406761E+03   -0.96609E-03   -0.10204E-01   248   0.985E-01    0.672E-02
RMM:   2    -0.114603176587E+03    0.23017E-03   -0.14919E-03   257   0.117E-01    0.357E-02
RMM:   3    -0.114603129713E+03    0.46875E-04   -0.31031E-04   251   0.392E-02    0.123E-02
RMM:   4    -0.114603130198E+03   -0.48506E-06   -0.28253E-05   265   0.108E-02    0.670E-03
RMM:   5    -0.114603130403E+03   -0.20492E-06   -0.36712E-06   188   0.477E-03
   3 F= -.11460313E+03 E0= -.11458643E+03  d E =-.500903E-01
       N       E                     dE             d eps       ncg     rms          rms(c)
RMM:   1    -0.114602847731E+03    0.28247E-03   -0.50663E-02   372   0.695E-01    0.456E-02
RMM:   2    -0.114602746731E+03    0.10100E-03   -0.75407E-04   387   0.817E-02    0.250E-02
RMM:   3    -0.114602706929E+03    0.39802E-04   -0.13798E-04   386   0.261E-02    0.947E-03
RMM:   4    -0.114602698274E+03    0.86553E-05   -0.19742E-05   382   0.881E-03    0.439E-03
RMM:   5    -0.114602693914E+03    0.43602E-05   -0.90788E-06   352   0.532E-03    0.140E-03
RMM:   6    -0.114602692472E+03    0.14418E-05   -0.25564E-06   262   0.266E-03    0.517E-04
RMM:   7    -0.114602691876E+03    0.59575E-06   -0.12096E-06   211   0.190E-03
   4 F= -.11460269E+03 E0= -.11458596E+03  d E =-.501929E-01
       N       E                     dE             d eps       ncg     rms          rms(c)
RMM:   1    -0.114603067823E+03   -0.37535E-03   -0.79475E-02   372   0.763E-01    0.721E-02
RMM:   2    -0.114602736118E+03    0.33170E-03   -0.14017E-03   379   0.101E-01    0.361E-02
RMM:   3    -0.114602691509E+03    0.44610E-04   -0.25319E-04   383   0.340E-02    0.139E-02
RMM:   4    -0.114602691586E+03   -0.77549E-07   -0.21070E-05   388   0.103E-02    0.555E-03
RMM:   5    -0.114602691931E+03   -0.34508E-06   -0.34475E-06   278   0.421E-03
   5 F= -.11460269E+03 E0= -.11458596E+03  d E =-.501933E-01
       N       E                     dE             d eps       ncg     rms          rms(c)
RMM:   1    -0.114604121484E+03   -0.14299E-02   -0.51795E-02   248   0.699E-01    0.419E-02
RMM:   2    -0.114603690241E+03    0.43124E-03   -0.76999E-04   259   0.816E-02    0.246E-02
RMM:   3    -0.114603149554E+03    0.54069E-03   -0.15006E-04   254   0.264E-02    0.884E-03
RMM:   4    -0.114602934514E+03    0.21504E-03   -0.18669E-05   254   0.842E-03    0.492E-03
RMM:   5    -0.114602675863E+03    0.25865E-03   -0.15290E-05   245   0.670E-03    0.143E-03
RMM:   6    -0.114602551798E+03    0.12407E-03   -0.48374E-06   203   0.341E-03    0.690E-04
RMM:   7    -0.114602478157E+03    0.73641E-04   -0.19986E-06   161   0.227E-03    0.350E-04
RMM:   8    -0.114602442470E+03    0.35687E-04   -0.10192E-06   129   0.167E-03    0.127E-04
RMM:   9    -0.114602435857E+03    0.66132E-05   -0.39897E-07    99   0.114E-03    0.782E-05
RMM:  10    -0.114602436634E+03   -0.77683E-06   -0.18755E-07    74   0.908E-04
   6 F= -.11460244E+03 E0= -.11458565E+03  d E =-.503723E-01
       N       E                     dE             d eps       ncg     rms          rms(c)
RMM:   1    -0.114603392204E+03   -0.95635E-03   -0.10194E-01   248   0.984E-01    0.671E-02
RMM:   2    -0.114603174433E+03    0.21777E-03   -0.15179E-03   258   0.117E-01    0.360E-02
RMM:   3    -0.114603128838E+03    0.45595E-04   -0.31124E-04   250   0.392E-02    0.124E-02
RMM:   4    -0.114603129281E+03   -0.44351E-06   -0.26930E-05   263   0.108E-02    0.688E-03
RMM:   5    -0.114603129818E+03   -0.53710E-06   -0.37107E-06   188   0.479E-03
   7 F= -.11460313E+03 E0= -.11458643E+03  d E =-.500901E-01
