 vasp.5.2.2 15Apr09 complex 
 executed on             LinuxIFC date 2014.04.24  10:26:39
 running on    1 nodes
 distr:  one band on    1 nodes,    1 groups


--------------------------------------------------------------------------------------------------------


 INCAR:
 POTCAR:   PAW_PBE Al 04Jan2001                   
 POTCAR:   PAW_PBE Al 04Jan2001                   
   VRHFIN =Al: s2p1                                                             
   LEXCH  = PE                                                                  
   EATOM  =    53.5387 eV,    3.9350 Ry                                         
                                                                                
   TITEL  = PAW_PBE Al 04Jan2001                                                
   LULTRA =        F    use ultrasoft PP ?                                      
   IUNSCR =        1    unscreen: 0-lin 1-nonlin 2-no                           
   RPACOR =    1.500    partial core radius                                     
   POMASS =   26.982; ZVAL   =    3.000    mass and valenz                      
   RCORE  =    1.900    outmost cutoff radius                                   
   RWIGS  =    2.650; RWIGS  =    1.402    wigner-seitz radius (au A)           
   ENMAX  =  240.300; ENMIN  =  180.225 eV                                      
   ICORE  =        2    local potential                                         
   LCOR   =        T    correct aug charges                                     
   LPAW   =        T    paw PP                                                  
   EAUG   =  291.052                                                            
   DEXC   =    -.041                                                            
   RMAX   =    2.974    core radius for proj-oper                               
   RAUG   =    1.300    factor for augmentation sphere                          
   RDEP   =    1.966    radius for radial grids                                 
   QCUT   =   -4.203; QGAM   =    8.405    optimization parameters              
                                                                                
   Description                                                                  
     l     E      TYP  RCUT    TYP  RCUT                                        
     0   .000     23  1.900                                                     
     0   .000     23  1.900                                                     
     1   .000     23  1.900                                                     
     1  1.000     23  1.900                                                     
     2   .000      7  1.900                                                     
  local pseudopotential read in
  partial core-charges read in
  atomic valenz-charges read in
  non local Contribution for L=           0  read in
    real space projection operators read in
  non local Contribution for L=           0  read in
    real space projection operators read in
  non local Contribution for L=           1  read in
    real space projection operators read in
  non local Contribution for L=           1  read in
    real space projection operators read in
    PAW grid and wavefunctions read in
 
   number of l-projection  operators is LMAX  =           4
   number of lm-projection operators is LMMAX =           8
 

 ----------------------------------------------------------------------------- 
|                                                                             |
|  ADVICE TO THIS USER RUNNING 'VASP/VAMP'   (HEAR YOUR MASTER'S VOICE ...):  |
|                                                                             |
|      You have a (more or less) 'large supercell' and for larger cells       |
|      it might be more efficient to use real space projection operators      |
|      So try LREAL= Auto  in the INCAR   file.                               |
|      Mind: If you want to do a very accurate calculations keep the          |
|      reciprocal projection scheme          (i.e. LREAL=.FALSE.)             |
|                                                                             |
 ----------------------------------------------------------------------------- 

 PAW_PBE Al 04Jan2001                   :
 energy of atom  1       EATOM=  -53.5387
 kinetic energy error for atom=    0.0011 (will be added to EATOM!!)
 
 
 POSCAR: Al31                                    
  positions in direct lattice
  velocities in cartesian coordinates
 exchange correlation table for  LEXCH =        8
   RHO(1)=    0.500       N(1)  =     2000
   RHO(2)=  100.500       N(2)  =     4000

 VTST: version 2.03d, (02/18/09)

 CHAIN: initializing optimizer
 
 OPT: Using VASP Dynamics algorithm
 CHAIN: Read ICHAIN            0
 


--------------------------------------------------------------------------------------------------------


 ion  position               nearest neighbor table
   1  0.000  0.000  0.000-   2 2.85   3 2.85   4 2.85   6 2.85   7 2.85  11 2.85  12 2.85  15 2.85
                            18 2.85  20 2.85  22 2.85  28 2.85
   2  0.249  0.000  0.249-   1 2.85   3 2.85   4 2.85  11 2.85  12 2.85   5 2.86  17 2.86  21 2.87
                             8 2.88  19 2.88  16 2.88  27 2.88
   3  0.249  0.249  0.000-   1 2.85   2 2.85   4 2.85  18 2.85  20 2.85   5 2.86   9 2.86  13 2.87
                            10 2.88   8 2.88  24 2.88  26 2.88
   4  0.000  0.249  0.249-   1 2.85   2 2.85   3 2.85   6 2.85   7 2.85   9 2.86  17 2.86  25 2.87
                            10 2.88  19 2.88  23 2.88  14 2.88
   5  0.500  0.000  0.000-   2 2.86   3 2.86   6 2.86   7 2.86  11 2.86  15 2.86  18 2.86  22 2.86
                             8 2.90  16 2.90  24 2.90  31 2.90
   6  0.751  0.000  0.249-   1 2.85   4 2.85   7 2.85  12 2.85  15 2.85   5 2.86  17 2.86  21 2.87
                             8 2.88  16 2.88  23 2.88  30 2.88
   7  0.751  0.249  0.000-   1 2.85   4 2.85   6 2.85  20 2.85  22 2.85   5 2.86   9 2.86  13 2.87
                             8 2.88  14 2.88  24 2.88  29 2.88
   8  0.500  0.253  0.253-  10 2.82  14 2.82  19 2.82  23 2.82  21 2.86  13 2.86   6 2.88   7 2.88
                             2 2.88   3 2.88   5 2.90
   9  0.000  0.500  0.000-   3 2.86   4 2.86   7 2.86  11 2.86  12 2.86  15 2.86  20 2.86  28 2.86
                            14 2.90  26 2.90  10 2.90  29 2.90
  10  0.253  0.500  0.253-   8 2.82  16 2.82  19 2.82  27 2.82  25 2.86  13 2.86   3 2.88  11 2.88
                            12 2.88   4 2.88   9 2.90
  11  0.249  0.751  0.000-   1 2.85   2 2.85  12 2.85  18 2.85  28 2.85   9 2.86   5 2.86  13 2.87
                            10 2.88  26 2.88  16 2.88  31 2.88
  12  0.000  0.751  0.249-   1 2.85   2 2.85   6 2.85  11 2.85  15 2.85   9 2.86  17 2.86  25 2.87
                            14 2.88  10 2.88  27 2.88  30 2.88
  13  0.500  0.500  0.000-   8 2.86  10 2.86  14 2.86  16 2.86  24 2.86  26 2.86  29 2.86  31 2.86
                            11 2.87   3 2.87  15 2.87   7 2.87
  14  0.747  0.500  0.253-   8 2.82  16 2.82  23 2.82  30 2.82  25 2.86  13 2.86   4 2.88  12 2.88
                             7 2.88  15 2.88   9 2.90
  15  0.751  0.751  0.000-   1 2.85   6 2.85  12 2.85  22 2.85  28 2.85   9 2.86   5 2.86  13 2.87
                            14 2.88  16 2.88  29 2.88  31 2.88
  16  0.500  0.747  0.253-  10 2.82  14 2.82  27 2.82  30 2.82  13 2.86  21 2.86  15 2.88  11 2.88
                             6 2.88   2 2.88   5 2.90
  17  0.000  0.000  0.500-   2 2.86   4 2.86   6 2.86  12 2.86  18 2.86  20 2.86  22 2.86  28 2.86
                            23 2.90  27 2.90  19 2.90  30 2.90
  18  0.249  0.000  0.751-   1 2.85   3 2.85  11 2.85  20 2.85  28 2.85   5 2.86  17 2.86  21 2.87
                            24 2.88  27 2.88  19 2.88  31 2.88
  19  0.253  0.253  0.500-   8 2.82  10 2.82  24 2.82  26 2.82  25 2.86  21 2.86   2 2.88   4 2.88
                            18 2.88  20 2.88  17 2.90
  20  0.000  0.249  0.751-   1 2.85   3 2.85   7 2.85  18 2.85  22 2.85   9 2.86  17 2.86  25 2.87
                            23 2.88  19 2.88  26 2.88  29 2.88
  21  0.500  0.000  0.500-   8 2.86  16 2.86  19 2.86  23 2.86  24 2.86  27 2.86  30 2.86  31 2.86
                            18 2.87   2 2.87  22 2.87   6 2.87
  22  0.751  0.000  0.751-   1 2.85   7 2.85  15 2.85  20 2.85  28 2.85   5 2.86  17 2.86  21 2.87
                            24 2.88  23 2.88  30 2.88  31 2.88
  23  0.747  0.253  0.500-   8 2.82  14 2.82  24 2.82  29 2.82  25 2.86  21 2.86  22 2.88   6 2.88
                            20 2.88   4 2.88  17 2.90
  24  0.500  0.253  0.747-  19 2.82  23 2.82  26 2.82  29 2.82  21 2.86  13 2.86  22 2.88  18 2.88
                             7 2.88   3 2.88   5 2.90
  25  0.000  0.500  0.500-  10 2.86  14 2.86  19 2.86  23 2.86  26 2.86  27 2.86  29 2.86  30 2.86
                            20 2.87  28 2.87   4 2.87  12 2.87
  26  0.253  0.500  0.747-  19 2.82  24 2.82  27 2.82  31 2.82  13 2.86  25 2.86  11 2.88  20 2.88
                            28 2.88   3 2.88   9 2.90
  27  0.253  0.747  0.500-  10 2.82  16 2.82  26 2.82  31 2.82  21 2.86  25 2.86   2 2.88  18 2.88
                            28 2.88  12 2.88  17 2.90
  28  0.000  0.751  0.751-   1 2.85  11 2.85  15 2.85  18 2.85  22 2.85   9 2.86  17 2.86  25 2.87
                            26 2.88  27 2.88  29 2.88  30 2.88
  29  0.747  0.500  0.747-  23 2.82  24 2.82  30 2.82  31 2.82  13 2.86  25 2.86  20 2.88  28 2.88
                             7 2.88  15 2.88   9 2.90
  30  0.747  0.747  0.500-  14 2.82  16 2.82  29 2.82  31 2.82  21 2.86  25 2.86  12 2.88  28 2.88
                             6 2.88  22 2.88  17 2.90
  31  0.500  0.747  0.747-  26 2.82  27 2.82  29 2.82  30 2.82  13 2.86  21 2.86  15 2.88  18 2.88
                            11 2.88  22 2.88   5 2.90
 
  LATTYP: Found a simple cubic cell.
 ALAT       =     8.0870540000
  
  Lattice vectors:
  
 A1 = (   8.0870540000,   0.0000000000,   0.0000000000)
 A2 = (   0.0000000000,   8.0870540000,   0.0000000000)
 A3 = (   0.0000000000,   0.0000000000,   8.0870540000)
 Subroutine PRICEL returns:
 Original cell was already a primitive cell.
 

Analysis of symmetry for initial positions (statically):

 Routine SETGRP: Setting up the symmetry group for a 
 simple cubic supercell.


 Subroutine GETGRP returns: Found 48 space group operations
 (whereof 48 operations were pure point group operations)
 out of a pool of 48 trial point group operations.


The static configuration has the point symmetry O_h .

Analysis of symmetry for dynamics (positions and initial velocities):

 Subroutine DYNSYM returns: Found 48 space group operations
 (whereof 48 operations were pure point group operations)
 out of a pool of 48 trial space group operations
 (whereof 48 operations were pure point group operations)
 and found also     1 'primitive' translations


The dynamic configuration has the point symmetry O_h .

Analysis of constrained symmetry for selective dynamics:

 Subroutine DYNSYM returns: Found  4 space group operations
 (whereof  4 operations were pure point group operations)
 out of a pool of 48 trial space group operations
 (whereof 48 operations were pure point group operations)
 and found also     1 'primitive' translations


The constrained configuration has the point symmetry C_2v.
 
 
 KPOINTS: Automatic kpoint scheme                 

Automatic generation of k-mesh.
 
 Subroutine IBZKPT returns following result:
 ===========================================
 
 Found      2 irreducible k-points:
 
 Following reciprocal coordinates:
            Coordinates               Weight
  0.250000  0.250000  0.250000      4.000000
 -0.250000  0.250000  0.250000      4.000000
 
 Following cartesian coordinates:
            Coordinates               Weight
  0.030914  0.030914  0.030914      4.000000
 -0.030914  0.030914  0.030914      4.000000
 
 
 Subroutine IBZKPT_HF returns following result:
 ==============================================
 
 Found      8 k-points in 1st BZ
 the following      8 k-points will be used (e.g. in the exchange kernel)
 Following reciprocal coordinates:   # in IRBZ
  0.250000  0.250000  0.250000       1
 -0.250000  0.250000  0.250000       2
  0.250000 -0.250000  0.250000       1
  0.250000 -0.250000 -0.250000       2
 -0.250000 -0.250000  0.250000       2
  0.250000  0.250000 -0.250000       2
 -0.250000 -0.250000 -0.250000       1
 -0.250000  0.250000 -0.250000       1


--------------------------------------------------------------------------------------------------------




 Dimension of arrays:
   k-points           NKPTS =      2   k-points in BZ     NKDIM =      2   number of bands    NBANDS=     62
   number of dos      NEDOS =    301   number of ions     NIONS =     31
   non local maximal  LDIM  =      4   non local SUM 2l+1 LMDIM =      8
   total plane-waves  NPLWV = 110592
   max r-space proj   IRMAX =      1   max aug-charges    IRDMAX=   8337
   dimension x,y,z NGX =    48 NGY =   48 NGZ =   48
   dimension x,y,z NGXF=    96 NGYF=   96 NGZF=   96
   support grid    NGXF=    96 NGYF=   96 NGZF=   96
   ions per type =              31
 NGX,Y,Z   is equivalent  to a cutoff of   9.87,  9.87,  9.87 a.u.
 NGXF,Y,Z  is equivalent  to a cutoff of  19.73, 19.73, 19.73 a.u.


 I would recommend the setting:
   dimension x,y,z NGX =    46 NGY =   46 NGZ =   46
 SYSTEM =  unknown system                          
 POSCAR =  Al31                                    

 Startparameter for this run:
   NWRITE =      2    write-flag & timer
   PREC   = accura    medium, high low
   ISTART =      0    job   : 0-new  1-cont  2-samecut
   ICHARG =      2    charge: 1-file 2-atom 10-const
   ISPIN  =      1    spin polarized calculation?
   LNONCOLLINEAR =      F non collinear calculations
   LSORBIT =      F    spin-orbit coupling
   INIWAV =      1    electr: 0-lowe 1-rand  2-diag
   LASPH  =      F    aspherical Exc in radial PAW
   METAGGA=      F    non-selfconsistent MetaGGA calc.

 Electronic Relaxation 1
   ENCUT  =  300.0 eV  22.05 Ry    4.70 a.u.  11.42 11.42 11.42*2*pi/ulx,y,z
   ENINI  =  300.0     initial cutoff
   ENAUG  =  291.1 eV  augmentation charge cutoff
   NELM   =     60;   NELMIN=  2; NELMDL=-12     # of ELM steps 
   EDIFF  = 0.1E-05   stopping-criterion for ELM
   LREAL  =      F    real-space projection
   LCOMPAT=      F    compatible to vasp.4.4
   LREAL_COMPAT= F    compatible to vasp.4.5.1-3
   GGA_COMPAT  = T    GGA compatible to vasp.4.4-vasp.4.6
   LMAXPAW     = -100 max onsite density
   LMAXMIX     =    2 max onsite mixed and CHGCAR
   VOSKOWN=      0    Vosko Wilk Nusair interpolation
   ROPT   =    0.00000
 Ionic relaxation
   EDIFFG = 0.5E-01   stopping-criterion for IOM
   NSW    =    382    number of steps for IOM
   NBLOCK =      1;   KBLOCK =    191    inner block; outer block 
   IBRION =      5    ionic relax: 0-MD 1-quasi-New 2-CG
   NFREE  =      2    steps in history (QN), initial steepest desc. (CG)
   ISIF   =      2    stress and relaxation
   IWAVPR =     11    prediction:  0-non 1-charg 2-wave 3-comb
   ISYM   =      2    0-nonsym 1-usesym 2-fastsym
   LCORR  =      T    Harris-Foulkes like correction to forces

   POTIM  = 0.5000    time-step for ionic-motion
   TEIN   =    0.0    initial temperature
   TEBEG  =    0.0;   TEEND  =   0.0 temperature during run
   SMASS  =  -3.00    Nose mass-parameter (am)
   estimated Nose-frequenzy (Omega)   =  0.10E-29 period in steps =****** mass=  -0.149E-26a.u.
   NPACO  =    256;   APACO  = 16.0  distance and # of slots for P.C.
   PSTRESS=    0.0 pullay stress

  Mass of Ions in am
   POMASS =  26.98
  Ionic Valenz
   ZVAL   =   3.00
  Atomic Wigner-Seitz radii
   RWIGS  =  -1.00
   NELECT =      93.0000    total number of electrons
   NUPDOWN=      -1.0000    fix difference up-down

 DOS related values:
   EMIN   =  10.00;   EMAX   =-10.00  energy-range for DOS
   EFERMI =   0.00
   ISMEAR =     1;   SIGMA  =   0.20  broadening in eV -4-tet -1-fermi 0-gaus

 Electronic relaxation 2 (details)
   IALGO  =     48    algorithm
   LDIAG  =      T    sub-space diagonalisation
   IMIX   =      4    mixing-type and parameters
     AMIX     =   0.40;   BMIX     =  1.00
     AMIX_MAG =   1.60;   BMIX_MAG =  1.00
     AMIN     =   0.10
     WC   =   100.;   INIMIX=   1;  MIXPRE=   1

 Intra band minimization:
   WEIMIN = 0.0010     energy-eigenvalue tresh-hold
   EBREAK =  0.40E-08  absolut break condition
   DEPER  =   0.30     relativ break condition  

   TIME   =   0.40     timestep for ELM

  volume/ion in A,a.u.               =      17.06       115.13
  Fermi-wavevector in a.u.,A,eV,Ry     =   0.917161  1.733183 11.445002  0.841184
  Thomas-Fermi vector in A             =   2.042098
 
 Write flags
   LWAVE  =      F    write WAVECAR
   LCHARG =      F    write CHGCAR
   LVTOT  =      F    write LOCPOT, local potential
   LELF   =      F    write electronic localiz. function (ELF)
   LORBIT =      0    0 simple, 1 ext, 2 COOP (PROOUT)


 Dipole corrections
   LMONO  =      F    monopole corrections only (constant potential shift)
   LDIPOL =      F    correct potential (dipole corrections)
   IDIPOL =      0    1-x, 2-y, 3-z, 4-all directions 
   EPSILON=  1.0000000 bulk dielectric constant

 Exchange correlation treatment:
   GGA     =    --    GGA type
   LEXCH   =     8    internal setting for exchange type
   VOSKOWN=      0    Vosko Wilk Nusair interpolation
   LHFCALC =     F    Hartree Fock is set to
   LHFONE  =     F    Hartree Fock one center treatment
   AEXX    =    0.0000 exact exchange contribution

 Linear response parameters
   LEPSILON=     F    determine dielectric tensor
   LRPA    =     F    only Hartree local field effects (RPA)
   LNABLA  =     F    use nabla operator in PAW spheres
   LVEL    =     F    velocity operator in full k-point grid
   LINTERFAST=   F  fast interpolation
   KINTER  =     0    interpolate to denser k-point grid
   CSHIFT  =0.1000    complex shift for real part using Kramers Kronig
   OMEGAMAX=  -1.0    maximum frequency

 Orbital magnetization related:
   ORBITALMAG=     F  switch on orbital magnetization
   LCHIMAG   =     F  perturbation theory with respect to B field



--------------------------------------------------------------------------------------------------------


 finite differences
   using selective dynamics as specified on POSCAR
 charge density and potential will be updated during run
 non-spin polarized calculation
 RMM-DIIS sequential band-by-band
 perform sub-space diagonalisation
    before iterative eigenvector-optimisation
 modified Broyden-mixing scheme, WC =      100.0
 initial mixing is a Kerker type mixing with AMIX =  0.4000 and BMIX =      1.0000
 Hartree-type preconditioning will be used
 using additional bands           15
 reciprocal scheme for non local part
 use partial core corrections
 calculate Harris-corrections to forces 
   (improved forces if not selfconsistent)
 use gradient corrections 
 use of overlap-Matrix (Vanderbilt PP)
 Methfessel and Paxton  Order N= 1 SIGMA  =   0.20


--------------------------------------------------------------------------------------------------------


  energy-cutoff  :      300.00
  volume of cell :      528.90
      direct lattice vectors                 reciprocal lattice vectors
     8.087054000  0.000000000  0.000000000     0.123654423  0.000000000  0.000000000
     0.000000000  8.087054000  0.000000000     0.000000000  0.123654423  0.000000000
     0.000000000  0.000000000  8.087054000     0.000000000  0.000000000  0.123654423

  length of vectors
     8.087054000  8.087054000  8.087054000     0.123654423  0.123654423  0.123654423


 
 k-points in units of 2pi/SCALE and weight: Automatic kpoint scheme                 
   0.03091361  0.03091361  0.03091361       0.500
  -0.03091361  0.03091361  0.03091361       0.500
 
 k-points in reciprocal lattice and weights: Automatic kpoint scheme                 
   0.25000000  0.25000000  0.25000000       0.500
  -0.25000000  0.25000000  0.25000000       0.500
 
 position of ions in fractional coordinates (direct lattice) 
   0.00000000  0.00000000  0.00000000
   0.24945200  0.00000000  0.24945200
   0.24945200  0.24945200  0.00000000
   0.00000000  0.24945200  0.24945200
   0.50000000  0.00000000  0.00000000
   0.75054800  0.00000000  0.24945200
   0.75054800  0.24945200  0.00000000
   0.50000000  0.25322100  0.25322100
   0.00000000  0.50000000  0.00000000
   0.25322100  0.50000000  0.25322100
   0.24945200  0.75054800  0.00000000
   0.00000000  0.75054800  0.24945200
   0.50000000  0.50000000  0.00000000
   0.74677900  0.50000000  0.25322100
   0.75054800  0.75054800  0.00000000
   0.50000000  0.74677900  0.25322100
   0.00000000  0.00000000  0.50000000
   0.24945200  0.00000000  0.75054800
   0.25322100  0.25322100  0.50000000
   0.00000000  0.24945200  0.75054800
   0.50000000  0.00000000  0.50000000
   0.75054800  0.00000000  0.75054800
   0.74677900  0.25322100  0.50000000
   0.50000000  0.25322100  0.74677900
   0.00000000  0.50000000  0.50000000
   0.25322100  0.50000000  0.74677900
   0.25322100  0.74677900  0.50000000
   0.00000000  0.75054800  0.75054800
   0.74677900  0.50000000  0.74677900
   0.74677900  0.74677900  0.50000000
   0.50000000  0.74677900  0.74677900
 
 position of ions in cartesian coordinates  (Angst):
   0.00000000  0.00000000  0.00000000
   2.01733179  0.00000000  2.01733179
   2.01733179  2.01733179  0.00000000
   0.00000000  2.01733179  2.01733179
   4.04352700  0.00000000  0.00000000
   6.06972221  0.00000000  2.01733179
   6.06972221  2.01733179  0.00000000
   4.04352700  2.04781190  2.04781190
   0.00000000  4.04352700  0.00000000
   2.04781190  4.04352700  2.04781190
   2.01733179  6.06972221  0.00000000
   0.00000000  6.06972221  2.01733179
   4.04352700  4.04352700  0.00000000
   6.03924210  4.04352700  2.04781190
   6.06972221  6.06972221  0.00000000
   4.04352700  6.03924210  2.04781190
   0.00000000  0.00000000  4.04352700
   2.01733179  0.00000000  6.06972221
   2.04781190  2.04781190  4.04352700
   0.00000000  2.01733179  6.06972221
   4.04352700  0.00000000  4.04352700
   6.06972221  0.00000000  6.06972221
   6.03924210  2.04781190  4.04352700
   4.04352700  2.04781190  6.03924210
   0.00000000  4.04352700  4.04352700
   2.04781190  4.04352700  6.03924210
   2.04781190  6.03924210  4.04352700
   0.00000000  6.06972221  6.06972221
   6.03924210  4.04352700  6.03924210
   6.03924210  6.03924210  4.04352700
   4.04352700  6.03924210  6.03924210
 


--------------------------------------------------------------------------------------------------------


 k-point  1 :  0.25000.25000.2500  plane waves:    6238
 k-point  2 :  -.25000.25000.2500  plane waves:    6238

 maximum and minimum number of plane-waves per node :    6238   6238

 maximum number of plane-waves:    6238
 maximal index in each direction: 
   IXMAX= 11   IYMAX= 11   IZMAX= 11
   IXMIN=-11   IYMIN=-11   IZMIN=-11

 NGX is ok and might be reduce to  46
 NGY is ok and might be reduce to  46
 NGZ is ok and might be reduce to  46

 serial   3D FFT for wavefunctions
 parallel 3D FFT for charge:
    minimum data exchange during FFTs selected (reduces bandwidth)


 total amount of memory used by VASP on root node 125108. kBytes
========================================================================

   base      :    30000. kBytes
   nonl-proj :     3892. kBytes
   fftplans  :    30736. kBytes
   grid      :    47517. kBytes
   one-center:       95. kBytes
   wavefun   :    12868. kBytes
 
 Broyden mixing: mesh for mixing (old mesh)
   NGX = 23   NGY = 23   NGZ = 23
  (NGX  = 96   NGY  = 96   NGZ  = 96)
  gives a total of  12167 points

 initial charge density was supplied:
 charge density of overlapping atoms calculated
 number of electron   93.0000000 magnetization 
 keeping initial charge density in first step


--------------------------------------------------------------------------------------------------------


 Maximum index for augmentation-charges         7915 (set IRDMAX)


--------------------------------------------------------------------------------------------------------


 First call to EWALD:  gamma=   0.219
 Maximum number of real-space cells 3x 3x 3
 Maximum number of reciprocal cells 3x 3x 3

    FEWALD:  cpu time    0.07: real time    0.02
   RESPFUN:  cpu time    0.05: real time    0.07


----------------------------------------- Iteration    1(   1)  ---------------------------------------


    POTLOK:  cpu time    1.70: real time    1.70
    SETDIJ:  cpu time    0.15: real time    0.15
    EDDIAG:  cpu time    5.45: real time    3.81
  RMM-DIIS:  cpu time   21.55: real time    7.14
    ORTHCH:  cpu time    0.36: real time    0.09
       DOS:  cpu time    0.01: real time    0.00
    --------------------------------------------
      LOOP:  cpu time   29.21: real time   12.89

 eigenvalue-minimisations  :   124
 total energy-change (2. order) : 0.3063031E+03  (-0.1689637E+04)
 number of electron   93.0000000 magnetization 
 augmentation part    93.0000000 magnetization 

 Free energy of the ion-electron system (eV)
  ---------------------------------------------------
  alpha Z        PSCENC =        -6.10292531
  Ewald energy   TEWEN  =     -2232.04189804
  -1/2 Hartree   DENC   =       -17.07714254
  -exchange  EXHF       =         0.00000000
  -V(xc)+E(xc)   XCENC  =      -814.85524565
  PAW double counting   =      1102.18190231     -111.56847430
  entropy T*S    EENTRO =        -0.03346381
  eigenvalues    EBANDS =       726.13400710
  atomic energy  EATOM  =      1659.66634407
  ---------------------------------------------------
  free energy    TOTEN  =       306.30310384 eV

  energy without entropy =      306.33656764  energy(sigma->0) =      306.31425844


--------------------------------------------------------------------------------------------------------




----------------------------------------- Iteration    1(   2)  ---------------------------------------


    EDDIAG:  cpu time    5.25: real time    3.55
  RMM-DIIS:  cpu time   22.36: real time    7.25
    ORTHCH:  cpu time    0.36: real time    0.09
       DOS:  cpu time    0.01: real time    0.00
    --------------------------------------------
      LOOP:  cpu time   28.01: real time   10.91

 eigenvalue-minimisations  :   124
 total energy-change (2. order) :-0.3151136E+03  (-0.3092580E+03)
 number of electron   93.0000000 magnetization 
 augmentation part    93.0000000 magnetization 

 Free energy of the ion-electron system (eV)
  ---------------------------------------------------
  alpha Z        PSCENC =        -6.10292531
  Ewald energy   TEWEN  =     -2232.04189804
  -1/2 Hartree   DENC   =       -17.07714254
  -exchange  EXHF       =         0.00000000
  -V(xc)+E(xc)   XCENC  =      -814.85524565
  PAW double counting   =      1102.18190231     -111.56847430
  entropy T*S    EENTRO =         0.01817658
  eigenvalues    EBANDS =       410.96876148
  atomic energy  EATOM  =      1659.66634407
  ---------------------------------------------------
  free energy    TOTEN  =        -8.81050140 eV

  energy without entropy =       -8.82867797  energy(sigma->0) =       -8.81656026


--------------------------------------------------------------------------------------------------------




----------------------------------------- Iteration    1(   3)  ---------------------------------------


    EDDIAG:  cpu time    5.12: real time    3.55
  RMM-DIIS:  cpu time   21.79: real time    7.17
    ORTHCH:  cpu time    0.36: real time    0.09
       DOS:  cpu time    0.01: real time    0.00
    --------------------------------------------
      LOOP:  cpu time   27.38: real time   10.87

 eigenvalue-minimisations  :   124
 total energy-change (2. order) :-0.7508102E+02  (-0.7687959E+02)
 number of electron   93.0000000 magnetization 
 augmentation part    93.0000000 magnetization 

 Free energy of the ion-electron system (eV)
  ---------------------------------------------------
  alpha Z        PSCENC =        -6.10292531
  Ewald energy   TEWEN  =     -2232.04189804
  -1/2 Hartree   DENC   =       -17.07714254
  -exchange  EXHF       =         0.00000000
  -V(xc)+E(xc)   XCENC  =      -814.85524565
  PAW double counting   =      1102.18190231     -111.56847430
  entropy T*S    EENTRO =        -0.02776503
  eigenvalues    EBANDS =       335.93367924
  atomic energy  EATOM  =      1659.66634407
  ---------------------------------------------------
  free energy    TOTEN  =       -83.89152525 eV

  energy without entropy =      -83.86376022  energy(sigma->0) =      -83.88227024


--------------------------------------------------------------------------------------------------------




----------------------------------------- Iteration    1(   4)  ---------------------------------------


    EDDIAG:  cpu time    5.13: real time    3.52
  RMM-DIIS:  cpu time   21.86: real time    7.19
    ORTHCH:  cpu time    0.36: real time    0.09
       DOS:  cpu time    0.01: real time    0.00
    --------------------------------------------
      LOOP:  cpu time   27.42: real time   10.82

 eigenvalue-minimisations  :   124
 total energy-change (2. order) :-0.1958152E+02  (-0.1927145E+02)
 number of electron   93.0000000 magnetization 
 augmentation part    93.0000000 magnetization 

 Free energy of the ion-electron system (eV)
  ---------------------------------------------------
  alpha Z        PSCENC =        -6.10292531
  Ewald energy   TEWEN  =     -2232.04189804
  -1/2 Hartree   DENC   =       -17.07714254
  -exchange  EXHF       =         0.00000000
  -V(xc)+E(xc)   XCENC  =      -814.85524565
  PAW double counting   =      1102.18190231     -111.56847430
  entropy T*S    EENTRO =         0.05553139
  eigenvalues    EBANDS =       316.26885993
  atomic energy  EATOM  =      1659.66634407
  ---------------------------------------------------
  free energy    TOTEN  =      -103.47304814 eV

  energy without entropy =     -103.52857952  energy(sigma->0) =     -103.49155860


--------------------------------------------------------------------------------------------------------




----------------------------------------- Iteration    1(   5)  ---------------------------------------


    EDDIAG:  cpu time    5.28: real time    3.55
  RMM-DIIS:  cpu time   22.04: real time    7.21
    ORTHCH:  cpu time    0.36: real time    0.09
       DOS:  cpu time    0.01: real time    0.00
    --------------------------------------------
      LOOP:  cpu time   27.69: real time   10.85

 eigenvalue-minimisations  :   124
 total energy-change (2. order) :-0.6863380E+01  (-0.5965425E+01)
 number of electron   93.0000000 magnetization 
 augmentation part    93.0000000 magnetization 

 Free energy of the ion-electron system (eV)
  ---------------------------------------------------
  alpha Z        PSCENC =        -6.10292531
  Ewald energy   TEWEN  =     -2232.04189804
  -1/2 Hartree   DENC   =       -17.07714254
  -exchange  EXHF       =         0.00000000
  -V(xc)+E(xc)   XCENC  =      -814.85524565
  PAW double counting   =      1102.18190231     -111.56847430
  entropy T*S    EENTRO =        -0.01295391
  eigenvalues    EBANDS =       309.47396545
  atomic energy  EATOM  =      1659.66634407
  ---------------------------------------------------
  free energy    TOTEN  =      -110.33642791 eV

  energy without entropy =     -110.32347401  energy(sigma->0) =     -110.33210994


--------------------------------------------------------------------------------------------------------




----------------------------------------- Iteration    1(   6)  ---------------------------------------


    EDDIAG:  cpu time    5.15: real time    3.49
  RMM-DIIS:  cpu time   22.30: real time    7.29
    ORTHCH:  cpu time    0.36: real time    0.09
       DOS:  cpu time    0.01: real time    0.00
    --------------------------------------------
      LOOP:  cpu time   27.82: real time   10.87

 eigenvalue-minimisations  :   124
 total energy-change (2. order) :-0.2767943E+01  (-0.2277878E+01)
 number of electron   93.0000000 magnetization 
 augmentation part    93.0000000 magnetization 

 Free energy of the ion-electron system (eV)
  ---------------------------------------------------
  alpha Z        PSCENC =        -6.10292531
  Ewald energy   TEWEN  =     -2232.04189804
  -1/2 Hartree   DENC   =       -17.07714254
  -exchange  EXHF       =         0.00000000
  -V(xc)+E(xc)   XCENC  =      -814.85524565
  PAW double counting   =      1102.18190231     -111.56847430
  entropy T*S    EENTRO =        -0.03968237
  eigenvalues    EBANDS =       306.73275110
  atomic energy  EATOM  =      1659.66634407
  ---------------------------------------------------
  free energy    TOTEN  =      -113.10437073 eV

  energy without entropy =     -113.06468836  energy(sigma->0) =     -113.09114327


--------------------------------------------------------------------------------------------------------




----------------------------------------- Iteration    1(   7)  ---------------------------------------


    EDDIAG:  cpu time    4.89: real time    3.48
  RMM-DIIS:  cpu time   21.88: real time    7.19
    ORTHCH:  cpu time    0.36: real time    0.09
       DOS:  cpu time    0.01: real time    0.00
    --------------------------------------------
      LOOP:  cpu time   27.24: real time   10.83

 eigenvalue-minimisations  :   124
 total energy-change (2. order) :-0.1182787E+01  (-0.9849651E+00)
 number of electron   93.0000000 magnetization 
 augmentation part    93.0000000 magnetization 

 Free energy of the ion-electron system (eV)
  ---------------------------------------------------
  alpha Z        PSCENC =        -6.10292531
  Ewald energy   TEWEN  =     -2232.04189804
  -1/2 Hartree   DENC   =       -17.07714254
  -exchange  EXHF       =         0.00000000
  -V(xc)+E(xc)   XCENC  =      -814.85524565
  PAW double counting   =      1102.18190231     -111.56847430
  entropy T*S    EENTRO =        -0.04188406
  eigenvalues    EBANDS =       305.55216589
  atomic energy  EATOM  =      1659.66634407
  ---------------------------------------------------
  free energy    TOTEN  =      -114.28715762 eV

  energy without entropy =     -114.24527357  energy(sigma->0) =     -114.27319627


--------------------------------------------------------------------------------------------------------




----------------------------------------- Iteration    1(   8)  ---------------------------------------


    EDDIAG:  cpu time    5.21: real time    3.55
  RMM-DIIS:  cpu time   22.21: real time    7.23
    ORTHCH:  cpu time    0.36: real time    0.09
       DOS:  cpu time    0.01: real time    0.00
    --------------------------------------------
      LOOP:  cpu time   27.86: real time   10.89

 eigenvalue-minimisations  :   124
 total energy-change (2. order) :-0.5351476E+00  (-0.4595514E+00)
 number of electron   93.0000000 magnetization 
 augmentation part    93.0000000 magnetization 

 Free energy of the ion-electron system (eV)
  ---------------------------------------------------
  alpha Z        PSCENC =        -6.10292531
  Ewald energy   TEWEN  =     -2232.04189804
  -1/2 Hartree   DENC   =       -17.07714254
  -exchange  EXHF       =         0.00000000
  -V(xc)+E(xc)   XCENC  =      -814.85524565
  PAW double counting   =      1102.18190231     -111.56847430
  entropy T*S    EENTRO =        -0.03591179
  eigenvalues    EBANDS =       305.01104599
  atomic energy  EATOM  =      1659.66634407
  ---------------------------------------------------
  free energy    TOTEN  =      -114.82230526 eV

  energy without entropy =     -114.78639346  energy(sigma->0) =     -114.81033466


--------------------------------------------------------------------------------------------------------




----------------------------------------- Iteration    1(   9)  ---------------------------------------


    EDDIAG:  cpu time    5.15: real time    3.49
  RMM-DIIS:  cpu time   51.03: real time   14.91
    ORTHCH:  cpu time    0.34: real time    0.08
       DOS:  cpu time    0.01: real time    0.00
    --------------------------------------------
      LOOP:  cpu time   56.54: real time   18.50

 eigenvalue-minimisations  :   297
 total energy-change (2. order) :-0.4927861E+00  (-0.4606872E+00)
 number of electron   93.0000000 magnetization 
 augmentation part    93.0000000 magnetization 

 Free energy of the ion-electron system (eV)
  ---------------------------------------------------
  alpha Z        PSCENC =        -6.10292531
  Ewald energy   TEWEN  =     -2232.04189804
  -1/2 Hartree   DENC   =       -17.07714254
  -exchange  EXHF       =         0.00000000
  -V(xc)+E(xc)   XCENC  =      -814.85524565
  PAW double counting   =      1102.18190231     -111.56847430
  entropy T*S    EENTRO =        -0.04234248
  eigenvalues    EBANDS =       304.52469060
  atomic energy  EATOM  =      1659.66634407
  ---------------------------------------------------
  free energy    TOTEN  =      -115.31509133 eV

  energy without entropy =     -115.27274885  energy(sigma->0) =     -115.30097717


--------------------------------------------------------------------------------------------------------




----------------------------------------- Iteration    1(  10)  ---------------------------------------


    EDDIAG:  cpu time    5.13: real time    3.49
  RMM-DIIS:  cpu time   51.95: real time   15.01
    ORTHCH:  cpu time    0.34: real time    0.08
       DOS:  cpu time    0.01: real time    0.00
    --------------------------------------------
      LOOP:  cpu time   57.44: real time   18.60

 eigenvalue-minimisations  :   301
 total energy-change (2. order) :-0.9020050E-01  (-0.4360678E-01)
 number of electron   93.0000000 magnetization 
 augmentation part    93.0000000 magnetization 

 Free energy of the ion-electron system (eV)
  ---------------------------------------------------
  alpha Z        PSCENC =        -6.10292531
  Ewald energy   TEWEN  =     -2232.04189804
  -1/2 Hartree   DENC   =       -17.07714254
  -exchange  EXHF       =         0.00000000
  -V(xc)+E(xc)   XCENC  =      -814.85524565
  PAW double counting   =      1102.18190231     -111.56847430
  entropy T*S    EENTRO =        -0.04787033
  eigenvalues    EBANDS =       304.44001795
  atomic energy  EATOM  =      1659.66634407
  ---------------------------------------------------
  free energy    TOTEN  =      -115.40529184 eV

  energy without entropy =     -115.35742151  energy(sigma->0) =     -115.38933506


--------------------------------------------------------------------------------------------------------




----------------------------------------- Iteration    1(  11)  ---------------------------------------


    EDDIAG:  cpu time    4.77: real time    3.37
  RMM-DIIS:  cpu time   47.43: real time   13.84
    ORTHCH:  cpu time    0.34: real time    0.08
       DOS:  cpu time    0.01: real time    0.00
    --------------------------------------------
      LOOP:  cpu time   52.63: real time   17.36

 eigenvalue-minimisations  :   275
 total energy-change (2. order) :-0.2220677E-01  (-0.4538934E-02)
 number of electron   93.0000000 magnetization 
 augmentation part    93.0000000 magnetization 

 Free energy of the ion-electron system (eV)
  ---------------------------------------------------
  alpha Z        PSCENC =        -6.10292531
  Ewald energy   TEWEN  =     -2232.04189804
  -1/2 Hartree   DENC   =       -17.07714254
  -exchange  EXHF       =         0.00000000
  -V(xc)+E(xc)   XCENC  =      -814.85524565
  PAW double counting   =      1102.18190231     -111.56847430
  entropy T*S    EENTRO =        -0.05030798
  eigenvalues    EBANDS =       304.42024883
  atomic energy  EATOM  =      1659.66634407
  ---------------------------------------------------
  free energy    TOTEN  =      -115.42749860 eV

  energy without entropy =     -115.37719062  energy(sigma->0) =     -115.41072928


--------------------------------------------------------------------------------------------------------




----------------------------------------- Iteration    1(  12)  ---------------------------------------


    EDDIAG:  cpu time    5.05: real time    3.47
  RMM-DIIS:  cpu time   43.14: real time   12.69
    ORTHCH:  cpu time    0.34: real time    0.08
       DOS:  cpu time    0.01: real time    0.00
    CHARGE:  cpu time    2.07: real time    1.98
    MIXING:  cpu time    0.06: real time    0.06
    --------------------------------------------
      LOOP:  cpu time   50.69: real time   18.29

 eigenvalue-minimisations  :   249
 total energy-change (2. order) :-0.1155417E-02  (-0.2540585E-03)
 number of electron   92.9999995 magnetization 
 augmentation part    -1.1372674 magnetization 

 Broyden mixing:
  rms(total) = 0.53556E+00    rms(broyden)= 0.53553E+00
  rms(prec ) = 0.83788E+00
  weight for this iteration     100.00

 Free energy of the ion-electron system (eV)
  ---------------------------------------------------
  alpha Z        PSCENC =        -6.10292531
  Ewald energy   TEWEN  =     -2232.04189804
  -1/2 Hartree   DENC   =       -17.07714254
  -exchange  EXHF       =         0.00000000
  -V(xc)+E(xc)   XCENC  =      -814.85524565
  PAW double counting   =      1102.18190231     -111.56847430
  entropy T*S    EENTRO =        -0.05066926
  eigenvalues    EBANDS =       304.41945469
  atomic energy  EATOM  =      1659.66634407
  ---------------------------------------------------
  free energy    TOTEN  =      -115.42865402 eV

  energy without entropy =     -115.37798476  energy(sigma->0) =     -115.41176427


--------------------------------------------------------------------------------------------------------




----------------------------------------- Iteration    1(  13)  ---------------------------------------


    POTLOK:  cpu time    2.42: real time    2.42
    SETDIJ:  cpu time    0.15: real time    0.15
    EDDIAG:  cpu time    5.63: real time    3.94
  RMM-DIIS:  cpu time   41.79: real time   12.66
    ORTHCH:  cpu time    0.34: real time    0.08
       DOS:  cpu time    0.01: real time    0.00
    CHARGE:  cpu time    2.07: real time    1.98
    MIXING:  cpu time    0.06: real time    0.06
    --------------------------------------------
      LOOP:  cpu time   52.45: real time   21.28

 eigenvalue-minimisations  :   248
 total energy-change (2. order) : 0.5361074E+00  (-0.5156374E-01)
 number of electron   92.9999995 magnetization 
 augmentation part    -1.1515379 magnetization 

 Broyden mixing:
  rms(total) = 0.32929E+00    rms(broyden)= 0.32929E+00
  rms(prec ) = 0.48492E+00
  weight for this iteration     100.00

 eigenvalues of (default mixing * dielectric matrix)
  average eigenvalue GAMMA=   2.5329
  2.5329

 Free energy of the ion-electron system (eV)
  ---------------------------------------------------
  alpha Z        PSCENC =        -6.10292531
  Ewald energy   TEWEN  =     -2232.04189804
  -1/2 Hartree   DENC   =       -17.80494621
  -exchange  EXHF       =         0.00000000
  -V(xc)+E(xc)   XCENC  =      -813.76184690
  PAW double counting   =      1103.93487082     -113.43878756
  entropy T*S    EENTRO =        -0.04966598
  eigenvalues    EBANDS =       304.70630847
  atomic energy  EATOM  =      1659.66634407
  ---------------------------------------------------
  free energy    TOTEN  =      -114.89254663 eV

  energy without entropy =     -114.84288065  energy(sigma->0) =     -114.87599131


--------------------------------------------------------------------------------------------------------




----------------------------------------- Iteration    1(  14)  ---------------------------------------


    POTLOK:  cpu time    2.31: real time    2.31
    SETDIJ:  cpu time    0.15: real time    0.15
    EDDIAG:  cpu time    5.54: real time    3.89
  RMM-DIIS:  cpu time   42.06: real time   12.76
    ORTHCH:  cpu time    0.34: real time    0.08
       DOS:  cpu time    0.01: real time    0.00
    CHARGE:  cpu time    2.00: real time    1.91
    MIXING:  cpu time    0.07: real time    0.06
    --------------------------------------------
      LOOP:  cpu time   52.46: real time   21.21

 eigenvalue-minimisations  :   250
 total energy-change (2. order) : 0.2653757E+00  (-0.2285106E-01)
 number of electron   92.9999994 magnetization 
 augmentation part    -1.1720395 magnetization 

 Broyden mixing:
  rms(total) = 0.89149E-01    rms(broyden)= 0.89148E-01
  rms(prec ) = 0.13323E+00
  weight for this iteration     100.00

 eigenvalues of (default mixing * dielectric matrix)
  average eigenvalue GAMMA=   1.9131
  2.6066  1.2196

 Free energy of the ion-electron system (eV)
  ---------------------------------------------------
  alpha Z        PSCENC =        -6.10292531
  Ewald energy   TEWEN  =     -2232.04189804
  -1/2 Hartree   DENC   =       -18.87980461
  -exchange  EXHF       =         0.00000000
  -V(xc)+E(xc)   XCENC  =      -812.17343923
  PAW double counting   =      1105.64073447     -115.31506668
  entropy T*S    EENTRO =        -0.05033421
  eigenvalues    EBANDS =       304.62921856
  atomic energy  EATOM  =      1659.66634407
  ---------------------------------------------------
  free energy    TOTEN  =      -114.62717098 eV

  energy without entropy =     -114.57683677  energy(sigma->0) =     -114.61039291


--------------------------------------------------------------------------------------------------------




----------------------------------------- Iteration    1(  15)  ---------------------------------------


    POTLOK:  cpu time    2.29: real time    2.28
    SETDIJ:  cpu time    0.15: real time    0.15
    EDDIAG:  cpu time    5.55: real time    3.88
  RMM-DIIS:  cpu time   44.16: real time   13.25
    ORTHCH:  cpu time    0.34: real time    0.08
       DOS:  cpu time    0.01: real time    0.00
    CHARGE:  cpu time    2.05: real time    1.95
    MIXING:  cpu time    0.08: real time    0.06
    --------------------------------------------
      LOOP:  cpu time   54.64: real time   21.67

 eigenvalue-minimisations  :   261
 total energy-change (2. order) : 0.2337247E-01  (-0.2397932E-02)
 number of electron   92.9999994 magnetization 
 augmentation part    -1.1819776 magnetization 

 Broyden mixing:
  rms(total) = 0.12668E-01    rms(broyden)= 0.12668E-01
  rms(prec ) = 0.22771E-01
  weight for this iteration     100.00

 eigenvalues of (default mixing * dielectric matrix)
  average eigenvalue GAMMA=   1.8903
  1.0959  2.6165  1.9586

 Free energy of the ion-electron system (eV)
  ---------------------------------------------------
  alpha Z        PSCENC =        -6.10292531
  Ewald energy   TEWEN  =     -2232.04189804
  -1/2 Hartree   DENC   =       -19.28769667
  -exchange  EXHF       =         0.00000000
  -V(xc)+E(xc)   XCENC  =      -811.52636851
  PAW double counting   =      1106.44736476     -116.20884878
  entropy T*S    EENTRO =        -0.05019630
  eigenvalues    EBANDS =       304.50042628
  atomic energy  EATOM  =      1659.66634407
  ---------------------------------------------------
  free energy    TOTEN  =      -114.60379851 eV

  energy without entropy =     -114.55360221  energy(sigma->0) =     -114.58706641


--------------------------------------------------------------------------------------------------------




----------------------------------------- Iteration    1(  16)  ---------------------------------------


    POTLOK:  cpu time    2.08: real time    2.02
    SETDIJ:  cpu time    0.16: real time    0.16
    EDDIAG:  cpu time    5.29: real time    3.59
  RMM-DIIS:  cpu time   43.57: real time   13.07
    ORTHCH:  cpu time    0.34: real time    0.08
       DOS:  cpu time    0.01: real time    0.00
    CHARGE:  cpu time    2.02: real time    1.93
    MIXING:  cpu time    0.09: real time    0.06
    --------------------------------------------
      LOOP:  cpu time   53.58: real time   20.92

 eigenvalue-minimisations  :   257
 total energy-change (2. order) : 0.6439951E-03  (-0.3533664E-03)
 number of electron   92.9999994 magnetization 
 augmentation part    -1.1843486 magnetization 

 Broyden mixing:
  rms(total) = 0.38157E-02    rms(broyden)= 0.38156E-02
  rms(prec ) = 0.58652E-02
  weight for this iteration     100.00

 eigenvalues of (default mixing * dielectric matrix)
  average eigenvalue GAMMA=   1.8890
  2.6375  2.2417  1.0999  1.5768

 Free energy of the ion-electron system (eV)
  ---------------------------------------------------
  alpha Z        PSCENC =        -6.10292531
  Ewald energy   TEWEN  =     -2232.04189804
  -1/2 Hartree   DENC   =       -19.26757796
  -exchange  EXHF       =         0.00000000
  -V(xc)+E(xc)   XCENC  =      -811.45964905
  PAW double counting   =      1106.74016651     -116.52863482
  entropy T*S    EENTRO =        -0.05027834
  eigenvalues    EBANDS =       304.44129843
  atomic energy  EATOM  =      1659.66634407
  ---------------------------------------------------
  free energy    TOTEN  =      -114.60315451 eV

  energy without entropy =     -114.55287617  energy(sigma->0) =     -114.58639506


--------------------------------------------------------------------------------------------------------




----------------------------------------- Iteration    1(  17)  ---------------------------------------


    POTLOK:  cpu time    2.09: real time    2.09
    SETDIJ:  cpu time    0.15: real time    0.15
    EDDIAG:  cpu time    5.49: real time    3.81
  RMM-DIIS:  cpu time   46.89: real time   13.81
    ORTHCH:  cpu time    0.34: real time    0.08
       DOS:  cpu time    0.01: real time    0.00
    CHARGE:  cpu time    2.03: real time    1.93
    MIXING:  cpu time    0.10: real time    0.06
    --------------------------------------------
      LOOP:  cpu time   57.23: real time   22.00

 eigenvalue-minimisations  :   274
 total energy-change (2. order) :-0.3564808E-04  (-0.3519563E-04)
 number of electron   92.9999994 magnetization 
 augmentation part    -1.1851781 magnetization 

 Broyden mixing:
  rms(total) = 0.93593E-03    rms(broyden)= 0.93589E-03
  rms(prec ) = 0.14459E-02
  weight for this iteration     100.00

 eigenvalues of (default mixing * dielectric matrix)
  average eigenvalue GAMMA=   1.8294
  2.6530  2.5463  1.0924  1.4276  1.4276

 Free energy of the ion-electron system (eV)
  ---------------------------------------------------
  alpha Z        PSCENC =        -6.10292531
  Ewald energy   TEWEN  =     -2232.04189804
  -1/2 Hartree   DENC   =       -19.27923272
  -exchange  EXHF       =         0.00000000
  -V(xc)+E(xc)   XCENC  =      -811.44303511
  PAW double counting   =      1106.80569602     -116.60427113
  entropy T*S    EENTRO =        -0.05020368
  eigenvalues    EBANDS =       304.44633573
  atomic energy  EATOM  =      1659.66634407
  ---------------------------------------------------
  free energy    TOTEN  =      -114.60319016 eV

  energy without entropy =     -114.55298648  energy(sigma->0) =     -114.58645560


--------------------------------------------------------------------------------------------------------




----------------------------------------- Iteration    1(  18)  ---------------------------------------


    POTLOK:  cpu time    2.14: real time    2.02
    SETDIJ:  cpu time    0.16: real time    0.16
    EDDIAG:  cpu time    5.29: real time    3.59
  RMM-DIIS:  cpu time   48.72: real time   14.15
    ORTHCH:  cpu time    0.34: real time    0.08
       DOS:  cpu time    0.01: real time    0.00
    CHARGE:  cpu time    2.03: real time    1.93
    MIXING:  cpu time    0.10: real time    0.06
    --------------------------------------------
      LOOP:  cpu time   58.80: real time   22.01

 eigenvalue-minimisations  :   284
 total energy-change (2. order) :-0.1311607E-04  (-0.3639651E-05)
 number of electron   92.9999994 magnetization 
 augmentation part    -1.1855199 magnetization 

 Broyden mixing:
  rms(total) = 0.39906E-03    rms(broyden)= 0.39903E-03
  rms(prec ) = 0.69289E-03
  weight for this iteration     100.00

 eigenvalues of (default mixing * dielectric matrix)
  average eigenvalue GAMMA=   1.8241
  2.7141  2.6035  2.0108  1.0464  1.0464  1.5231

 Free energy of the ion-electron system (eV)
  ---------------------------------------------------
  alpha Z        PSCENC =        -6.10292531
  Ewald energy   TEWEN  =     -2232.04189804
  -1/2 Hartree   DENC   =       -19.28336371
  -exchange  EXHF       =         0.00000000
  -V(xc)+E(xc)   XCENC  =      -811.43998083
  PAW double counting   =      1106.80470040     -116.60527837
  entropy T*S    EENTRO =        -0.05021783
  eigenvalues    EBANDS =       304.44941635
  atomic energy  EATOM  =      1659.66634407
  ---------------------------------------------------
  free energy    TOTEN  =      -114.60320327 eV

  energy without entropy =     -114.55298544  energy(sigma->0) =     -114.58646400


--------------------------------------------------------------------------------------------------------




----------------------------------------- Iteration    1(  19)  ---------------------------------------


    POTLOK:  cpu time    2.13: real time    2.02
    SETDIJ:  cpu time    0.16: real time    0.16
    EDDIAG:  cpu time    5.29: real time    3.59
  RMM-DIIS:  cpu time   35.26: real time   10.62
    ORTHCH:  cpu time    0.34: real time    0.08
       DOS:  cpu time    0.01: real time    0.00
    CHARGE:  cpu time    2.03: real time    1.94
    MIXING:  cpu time    0.11: real time    0.06
    --------------------------------------------
      LOOP:  cpu time   45.34: real time   18.48

 eigenvalue-minimisations  :   206
 total energy-change (2. order) :-0.3509234E-05  (-0.4612968E-06)
 number of electron   92.9999994 magnetization 
 augmentation part    -1.1855811 magnetization 

 Broyden mixing:
  rms(total) = 0.97517E-04    rms(broyden)= 0.97504E-04
  rms(prec ) = 0.20060E-03
  weight for this iteration     100.00

 eigenvalues of (default mixing * dielectric matrix)
  average eigenvalue GAMMA=   1.7813
  2.7521  2.6148  1.7535  1.7535  1.5380  0.9984  1.0590

 Free energy of the ion-electron system (eV)
  ---------------------------------------------------
  alpha Z        PSCENC =        -6.10292531
  Ewald energy   TEWEN  =     -2232.04189804
  -1/2 Hartree   DENC   =       -19.28852487
  -exchange  EXHF       =         0.00000000
  -V(xc)+E(xc)   XCENC  =      -811.43894951
  PAW double counting   =      1106.78062615     -116.58173666
  entropy T*S    EENTRO =        -0.05021427
  eigenvalues    EBANDS =       304.45407165
  atomic energy  EATOM  =      1659.66634407
  ---------------------------------------------------
  free energy    TOTEN  =      -114.60320678 eV

  energy without entropy =     -114.55299252  energy(sigma->0) =     -114.58646869


--------------------------------------------------------------------------------------------------------




----------------------------------------- Iteration    1(  20)  ---------------------------------------


    POTLOK:  cpu time    2.13: real time    2.01
    SETDIJ:  cpu time    0.16: real time    0.16
    EDDIAG:  cpu time    5.29: real time    3.59
  RMM-DIIS:  cpu time   23.92: real time    7.61
    ORTHCH:  cpu time    0.34: real time    0.08
       DOS:  cpu time    0.01: real time    0.00
    --------------------------------------------
      LOOP:  cpu time   31.85: real time   13.46

 eigenvalue-minimisations  :   140
 total energy-change (2. order) :-0.1785318E-06  (-0.6377248E-07)
 number of electron   92.9999994 magnetization 
 augmentation part    -1.1855811 magnetization 

 Free energy of the ion-electron system (eV)
  ---------------------------------------------------
  alpha Z        PSCENC =        -6.10292531
  Ewald energy   TEWEN  =     -2232.04189804
  -1/2 Hartree   DENC   =       -19.28951041
  -exchange  EXHF       =         0.00000000
  -V(xc)+E(xc)   XCENC  =      -811.43890762
  PAW double counting   =      1106.77497304     -116.57604540
  entropy T*S    EENTRO =        -0.05021432
  eigenvalues    EBANDS =       304.45497704
  atomic energy  EATOM  =      1659.66634407
  ---------------------------------------------------
  free energy    TOTEN  =      -114.60320696 eV

  energy without entropy =     -114.55299264  energy(sigma->0) =     -114.58646885


--------------------------------------------------------------------------------------------------------




 average (electrostatic) potential at core
  the test charge radii are     1.0406
  (the norm of the test charge is              1.0000)
       1 -72.9232       2 -73.0113       3 -73.0113       4 -73.0113       5 -73.0543
       6 -73.0113       7 -73.0113       8 -72.9736       9 -73.0543      10 -72.9736
      11 -73.0113      12 -73.0113      13 -73.0624      14 -72.9736      15 -73.0113
      16 -72.9736      17 -73.0543      18 -73.0113      19 -72.9736      20 -73.0113
      21 -73.0624      22 -73.0113      23 -72.9736      24 -72.9736      25 -73.0624
      26 -72.9736      27 -72.9736      28 -73.0113      29 -72.9736      30 -72.9736
      31 -72.9736
 
 
 
 E-fermi :   7.8779     XC(G=0): -10.0466     alpha+bet :-14.3870
   add alpha+bet to get absolut eigen values

 k-point   1 :       0.2500    0.2500    0.2500
  band No.  band energies     occupation 
      1      -2.9341      2.00000
      2      -1.8589      2.00000
      3      -1.8589      2.00000
      4      -1.6865      2.00000
      5      -0.7438      2.00000
      6      -0.7438      2.00000
      7      -0.4973      2.00000
      8       0.3597      2.00000
      9       0.3597      2.00000
     10       0.4267      2.00000
     11       0.6051      2.00000
     12       1.4281      2.00000
     13       1.4281      2.00000
     14       1.4564      2.00000
     15       1.5632      2.00000
     16       1.5632      2.00000
     17       1.9080      2.00000
     18       2.6341      2.00000
     19       2.6341      2.00000
     20       2.7521      2.00000
     21       3.5949      2.00000
     22       3.5949      2.00000
     23       3.6961      2.00000
     24       3.6972      2.00000
     25       3.6972      2.00000
     26       3.9892      2.00000
     27       4.6222      2.00000
     28       4.6222      2.00000
     29       4.6536      2.00000
     30       4.7172      2.00000
     31       4.7172      2.00000
     32       4.9103      2.00000
     33       4.9103      2.00000
     34       4.9154      2.00000
     35       5.1742      2.00000
     36       5.7632      2.00000
     37       5.7632      2.00000
     38       6.2229      2.00000
     39       6.7766      2.00000
     40       6.7934      2.00000
     41       6.7934      2.00000
     42       6.9708      2.00000
     43       7.0232      2.00000
     44       7.0310      2.00000
     45       7.0310      2.00000
     46       7.8349      1.35494
     47       7.8814      0.97049
     48       7.8814      0.97049
     49       8.0965     -0.06454
     50       8.0965     -0.06454
     51       8.1550     -0.06459
     52       8.1956     -0.04721
     53       8.1956     -0.04721
     54       8.3187     -0.00783
     55       9.1493      0.00000
     56       9.1503      0.00000
     57       9.1818      0.00000
     58       9.4150      0.00000
     59       9.4215      0.00000
     60       9.4438      0.00000
     61      10.0277      0.00000
     62      10.0529      0.00000

 k-point   2 :      -0.2500    0.2500    0.2500
  band No.  band energies     occupation 
      1      -2.9341      2.00000
      2      -1.8589      2.00000
      3      -1.8589      2.00000
      4      -1.6865      2.00000
      5      -0.7438      2.00000
      6      -0.7438      2.00000
      7      -0.4973      2.00000
      8       0.3597      2.00000
      9       0.3597      2.00000
     10       0.4267      2.00000
     11       0.6051      2.00000
     12       1.4280      2.00000
     13       1.4281      2.00000
     14       1.4564      2.00000
     15       1.5632      2.00000
     16       1.5632      2.00000
     17       1.9080      2.00000
     18       2.6341      2.00000
     19       2.6341      2.00000
     20       2.7521      2.00000
     21       3.5949      2.00000
     22       3.5949      2.00000
     23       3.6961      2.00000
     24       3.6972      2.00000
     25       3.6972      2.00000
     26       3.9892      2.00000
     27       4.6222      2.00000
     28       4.6222      2.00000
     29       4.6536      2.00000
     30       4.7172      2.00000
     31       4.7172      2.00000
     32       4.9103      2.00000
     33       4.9103      2.00000
     34       4.9154      2.00000
     35       5.1742      2.00000
     36       5.7632      2.00000
     37       5.7632      2.00000
     38       6.2229      2.00000
     39       6.7766      2.00000
     40       6.7934      2.00000
     41       6.7934      2.00000
     42       6.9708      2.00000
     43       7.0232      2.00000
     44       7.0310      2.00000
     45       7.0310      2.00000
     46       7.8349      1.35494
     47       7.8814      0.97050
     48       7.8814      0.97049
     49       8.0965     -0.06454
     50       8.0965     -0.06454
     51       8.1550     -0.06459
     52       8.1956     -0.04721
     53       8.1956     -0.04721
     54       8.3187     -0.00783
     55       9.1494      0.00000
     56       9.1512      0.00000
     57       9.1815      0.00000
     58       9.4099      0.00000
     59       9.4148      0.00000
     60       9.4510      0.00000
     61      10.0294      0.00000
     62      10.0455      0.00000


--------------------------------------------------------------------------------------------------------


 soft charge-density along one line, spin component           1
         0         1         2         3         4         5         6         7         8         9
 total charge-density along one line
 
 pseudopotential strength for first ion, spin component:           1
  8.457  -0.006   0.000   0.000   0.000   0.000   0.000   0.000
 -0.006   0.000   0.000   0.000   0.000   0.000   0.000   0.000
  0.000   0.000   1.989   0.000   0.000  -0.026   0.000   0.000
  0.000   0.000   0.000   1.989   0.000   0.000  -0.026   0.000
  0.000   0.000   0.000   0.000   1.989   0.000   0.000  -0.026
  0.000   0.000  -0.026   0.000   0.000  -0.012   0.000   0.000
  0.000   0.000   0.000  -0.026   0.000   0.000  -0.012   0.000
  0.000   0.000   0.000   0.000  -0.026   0.000   0.000  -0.012
 total augmentation occupancy for first ion, spin component:           1
  1.327  -0.514   0.000   0.000   0.000   0.000   0.000   0.000
 -0.514   0.500   0.000   0.000   0.000   0.000   0.000   0.000
  0.000   0.000   0.746   0.000   0.000  -0.186   0.000   0.000
  0.000   0.000   0.000   0.746   0.000   0.000  -0.186   0.000
  0.000   0.000   0.000   0.000   0.746   0.000   0.000  -0.186
  0.000   0.000  -0.186   0.000   0.000   0.052   0.000   0.000
  0.000   0.000   0.000  -0.186   0.000   0.000   0.052   0.000
  0.000   0.000   0.000   0.000  -0.186   0.000   0.000   0.052


------------------------ aborting loop because EDIFF is reached ----------------------------------------




--------------------------------------------------------------------------------------------------------



  FREE ENERGIE OF THE ION-ELECTRON SYSTEM (eV)
  ---------------------------------------------------
  free  energy   TOTEN  =      -114.603207 eV

  energy  without entropy=     -114.552993  energy(sigma->0) =     -114.586469
 
    CHARGE:  cpu time    1.92: real time    1.92
    FORLOC:  cpu time    0.72: real time    0.72
    FORNL :  cpu time    5.86: real time    5.86
    STRESS:  cpu time   34.55: real time    9.27
    FORCOR:  cpu time    2.64: real time    2.64
    FORHAR:  cpu time    1.19: real time    1.19
    MIXING:  cpu time    0.12: real time    0.07

  FORCE on cell =-STRESS in cart. coord.  units (eV):
  Direction    XX          YY          ZZ          XY          YZ          ZX
  --------------------------------------------------------------------------------------
  Alpha Z    -6.10293    -6.10293    -6.10293
  Ewald    -744.01702  -744.01702  -744.01702     0.00000     0.00000     0.00000
  Hartree     6.42988     6.42996     6.42988     0.00000     0.00000     0.00000
  E(xc)    -264.13422  -264.13422  -264.13422     0.00000     0.00000     0.00000
  Local      -9.16338    -9.16347    -9.16338     0.00000     0.00000     0.00000
  n-local   585.60537   585.60537   585.60538     0.00000    -0.90202     0.00000
  augment   -31.62578   -31.62578   -31.62578     0.00000    -0.00001     0.00000
  Kinetic   460.40248   460.40248   460.40252     0.00001    -1.45260     0.00001
  Fock        0.00000     0.00000     0.00000     0.00000     0.00000     0.00000
  -------------------------------------------------------------------------------------
  Total      -2.60557    -2.60561    -2.60557     0.00000     0.00000     0.00001
  in kB      -7.89301    -7.89312    -7.89301     0.00000     0.00000     0.00004
  external pressure =       -7.89 kB  Pullay stress =        0.00 kB


 VOLUME and BASIS-vectors are now :
 -----------------------------------------------------------------------------
  energy-cutoff  :      300.00
  volume of cell :      528.90
      direct lattice vectors                 reciprocal lattice vectors
     8.087054000  0.000000000  0.000000000     0.123654423  0.000000000  0.000000000
     0.000000000  8.087054000  0.000000000     0.000000000  0.123654423  0.000000000
     0.000000000  0.000000000  8.087054000     0.000000000  0.000000000  0.123654423

  length of vectors
     8.087054000  8.087054000  8.087054000     0.123654423  0.123654423  0.123654423


 FORCES acting on ions
    electron-ion (+dipol)            ewald-force                    non-local-force                 convergence-correction
 -----------------------------------------------------------------------------------------------
   -.132E-04 -.605E-14 -.132E-04   -.821E-14 0.522E-14 -.167E-14   -.229E-05 0.000E+00 -.229E-05   0.149E-04 -.119E-14 0.149E-04
   -.233E+01 0.459E-13 -.233E+01   0.231E+01 0.111E-15 0.231E+01   0.451E-01 0.000E+00 0.451E-01   -.709E-05 0.469E-15 -.656E-05
   -.233E+01 -.233E+01 -.578E-06   0.231E+01 0.231E+01 -.272E-14   0.451E-01 0.450E-01 -.218E-07   -.294E-04 -.483E-04 0.898E-06
   -.674E-06 -.233E+01 -.233E+01   0.192E-14 0.231E+01 0.231E+01   -.218E-07 0.450E-01 0.451E-01   0.898E-06 -.480E-04 -.286E-04
   0.204E-04 -.821E-13 -.165E-04   0.120E-13 -.777E-14 0.289E-14   -.223E-05 -.106E-21 0.965E-06   -.155E-04 -.176E-14 0.136E-04
   0.233E+01 0.421E-13 -.233E+01   -.231E+01 0.111E-15 0.231E+01   -.451E-01 0.000E+00 0.451E-01   0.357E-05 0.636E-15 -.869E-06
   0.233E+01 -.233E+01 -.865E-05   -.231E+01 0.231E+01 0.350E-14   -.451E-01 0.451E-01 -.476E-05   0.292E-04 -.264E-04 0.107E-04
   -.922E-05 -.756E+01 -.756E+01   -.727E-15 0.765E+01 0.765E+01   0.597E-05 -.110E+00 -.110E+00   0.240E-05 -.153E-03 -.894E-04
   0.875E-05 -.106E-13 0.875E-05   -.608E-14 0.333E-14 0.755E-14   -.192E-05 0.000E+00 -.192E-05   -.586E-05 0.120E-14 -.586E-05
   -.756E+01 -.328E-13 -.756E+01   0.765E+01 -.200E-14 0.765E+01   -.110E+00 0.000E+00 -.110E+00   -.112E-03 -.192E-15 -.110E-03
   -.233E+01 0.233E+01 -.674E-06   0.231E+01 -.231E+01 0.500E-15   0.451E-01 -.450E-01 -.218E-07   -.294E-04 0.483E-04 0.898E-06
   -.674E-06 0.233E+01 -.233E+01   0.565E-14 -.231E+01 0.231E+01   -.218E-07 -.450E-01 0.451E-01   0.898E-06 0.480E-04 -.286E-04
   -.127E-04 0.111E-12 -.474E-05   0.684E-14 0.427E-14 0.328E-14   0.677E-05 0.000E+00 0.202E-05   0.714E-05 0.161E-14 0.875E-06
   0.756E+01 0.225E-13 -.756E+01   -.765E+01 0.239E-14 0.765E+01   0.110E+00 0.139E-16 -.110E+00   0.109E-03 -.864E-15 -.115E-03
   0.233E+01 0.233E+01 -.875E-05   -.231E+01 -.231E+01 -.128E-14   -.451E-01 -.451E-01 -.476E-05   0.292E-04 0.264E-04 0.107E-04
   -.922E-05 0.756E+01 -.756E+01   -.255E-14 -.765E+01 0.765E+01   0.597E-05 0.110E+00 -.110E+00   0.240E-05 0.153E-03 -.894E-04
   -.165E-04 0.679E-15 0.204E-04   -.179E-15 0.000E+00 0.244E-14   0.965E-06 0.000E+00 -.223E-05   0.136E-04 -.142E-14 -.155E-04
   -.233E+01 -.298E-13 0.233E+01   0.231E+01 -.128E-14 -.231E+01   0.451E-01 0.000E+00 -.451E-01   -.139E-05 -.288E-14 0.305E-05
   -.756E+01 -.756E+01 -.950E-05   0.765E+01 0.765E+01 -.844E-14   -.110E+00 -.110E+00 0.597E-05   -.902E-04 -.153E-03 0.240E-05
   -.865E-05 -.233E+01 0.233E+01   0.332E-14 0.231E+01 -.231E+01   -.476E-05 0.451E-01 -.451E-01   0.107E-04 -.261E-04 0.284E-04
   0.193E-04 -.528E-13 0.193E-04   0.132E-13 0.150E-14 0.600E-14   -.164E-05 0.000E+00 -.164E-05   -.147E-04 -.284E-14 -.147E-04
   0.233E+01 -.949E-13 0.233E+01   -.231E+01 -.483E-14 -.231E+01   -.451E-01 0.000E+00 -.451E-01   0.699E-05 -.504E-14 0.647E-05
   0.756E+01 -.756E+01 0.199E-04   -.765E+01 0.765E+01 -.466E-14   0.110E+00 -.110E+00 -.341E-05   0.898E-04 -.139E-03 -.135E-04
   0.199E-04 -.756E+01 0.756E+01   -.220E-14 0.765E+01 -.765E+01   -.341E-05 -.110E+00 0.110E+00   -.135E-04 -.140E-03 0.889E-04
   -.474E-05 -.161E-13 -.127E-04   0.375E-14 -.355E-14 0.577E-14   0.202E-05 0.000E+00 0.677E-05   0.875E-06 0.149E-14 0.714E-05
   -.756E+01 0.561E-14 0.756E+01   0.765E+01 0.810E-14 -.765E+01   -.110E+00 -.139E-16 0.110E+00   -.116E-03 0.335E-14 0.108E-03
   -.756E+01 0.756E+01 -.922E-05   0.765E+01 -.765E+01 0.105E-14   -.110E+00 0.110E+00 0.597E-05   -.902E-04 0.153E-03 0.240E-05
   -.865E-05 0.233E+01 0.233E+01   0.114E-14 -.231E+01 -.231E+01   -.476E-05 -.451E-01 -.451E-01   0.107E-04 0.261E-04 0.284E-04
   0.756E+01 -.870E-14 0.756E+01   -.765E+01 -.255E-14 -.765E+01   0.110E+00 0.000E+00 0.110E+00   0.118E-03 0.496E-14 0.117E-03
   0.756E+01 0.756E+01 0.201E-04   -.765E+01 -.765E+01 -.250E-14   0.110E+00 0.110E+00 -.341E-05   0.898E-04 0.139E-03 -.135E-04
   0.199E-04 0.756E+01 0.756E+01   -.433E-14 -.765E+01 -.765E+01   -.341E-05 0.110E+00 0.110E+00   -.135E-04 0.140E-03 0.889E-04
 -----------------------------------------------------------------------------------------------
   -.751E-05 -.326E-12 -.751E-05   -.788E-14 0.213E-13 0.187E-13   0.960E-05 0.555E-16 0.960E-05   0.124E-05 -.297E-14 0.124E-05
 
 
 POSITION                                       TOTAL-FORCE (eV/Angst)
 -----------------------------------------------------------------------------------
      0.00000      0.00000      0.00000        -0.000001      0.000000     -0.000001
      2.01733      0.00000      2.01733         0.022248      0.000000      0.022248
      2.01733      2.01733      0.00000         0.022246      0.022247      0.000000
      0.00000      2.01733      2.01733         0.000000      0.022247      0.022246
      4.04353      0.00000      0.00000         0.000003      0.000000     -0.000002
      6.06972      0.00000      2.01733        -0.022247      0.000000      0.022246
      6.06972      2.01733      0.00000        -0.022248      0.022245     -0.000003
      4.04353      2.04781      2.04781        -0.000001     -0.023065     -0.023063
      0.00000      4.04353      0.00000         0.000001      0.000000      0.000001
      2.04781      4.04353      2.04781        -0.023062      0.000000     -0.023062
      2.01733      6.06972      0.00000         0.022246     -0.022247      0.000000
      0.00000      6.06972      2.01733         0.000000     -0.022247      0.022246
      4.04353      4.04353      0.00000         0.000001      0.000000     -0.000002
      6.03924      4.04353      2.04781         0.023064      0.000000     -0.023062
      6.06972      6.06972      0.00000        -0.022248     -0.022245     -0.000003
      4.04353      6.03924      2.04781        -0.000001      0.023065     -0.023063
      0.00000      0.00000      4.04353        -0.000002      0.000000      0.000003
      2.01733      0.00000      6.06972         0.022246      0.000000     -0.022247
      2.04781      2.04781      4.04353        -0.023063     -0.023065     -0.000001
      0.00000      2.01733      6.06972        -0.000003      0.022245     -0.022248
      4.04353      0.00000      4.04353         0.000003      0.000000      0.000003
      6.06972      0.00000      6.06972        -0.022248      0.000000     -0.022248
      6.03924      2.04781      4.04353         0.023064     -0.023065      0.000003
      4.04353      2.04781      6.03924         0.000003     -0.023065      0.023064
      0.00000      4.04353      4.04353        -0.000002      0.000000      0.000001
      2.04781      4.04353      6.03924        -0.023062      0.000000      0.023064
      2.04781      6.03924      4.04353        -0.023063      0.023065     -0.000001
      0.00000      6.06972      6.06972        -0.000003     -0.022245     -0.022248
      6.03924      4.04353      6.03924         0.023062      0.000000      0.023062
      6.03924      6.03924      4.04353         0.023064      0.023065      0.000003
      4.04353      6.03924      6.03924         0.000003      0.023065      0.023064
 -----------------------------------------------------------------------------------
    total drift:                                0.000003      0.000000      0.000003


--------------------------------------------------------------------------------------------------------


    POTLOK:  cpu time    2.28: real time    2.17


--------------------------------------------------------------------------------------------------------


  FORCES: max atom, RMS     0.032614    0.005858
  FORCE total and by dimension    0.032614    0.023062

 ----------------------------------------------------------------------------- 
|                                                                             |
|           W    W    AA    RRRRR   N    N  II  N    N   GGGG   !!!           |
|           W    W   A  A   R    R  NN   N  II  NN   N  G    G  !!!           |
|           W    W  A    A  R    R  N N  N  II  N N  N  G       !!!           |
|           W WW W  AAAAAA  RRRRR   N  N N  II  N  N N  G  GGG   !            |
|           WW  WW  A    A  R   R   N   NN  II  N   NN  G    G                |
|           W    W  A    A  R    R  N    N  II  N    N   GGGG   !!!           |
|                                                                             |
|      Your timestep is larger than 0.1 Angst.                                |
|      For finite differences this really does not make sense. I will         |
|      reset POTIM to 0.015. I recommend to use 0.01 to 0.02 for finite       |
|      differences.                                                           |
|                                                                             |
 ----------------------------------------------------------------------------- 

 Finite differences:
   Step               POTIM =   1.500000000000000E-002
   Degrees of freedom DOF   =            3
  LATTYP: Found a simple cubic cell.
 ALAT       =     8.0870540000
  
  Lattice vectors:
  
 A1 = (   8.0870540000,   0.0000000000,   0.0000000000)
 A2 = (   0.0000000000,   8.0870540000,   0.0000000000)
 A3 = (   0.0000000000,   0.0000000000,   8.0870540000)
 Subroutine PRICEL returns:
 Original cell was already a primitive cell.
 

Analysis of symmetry for initial positions (statically):

 Routine SETGRP: Setting up the symmetry group for a 
 simple cubic supercell.


 Subroutine GETGRP returns: Found  2 space group operations
 (whereof  2 operations were pure point group operations)
 out of a pool of 48 trial point group operations.


The static configuration has the point symmetry C_1h.

Analysis of symmetry for dynamics (positions and initial velocities):

 Subroutine DYNSYM returns: Found  2 space group operations
 (whereof  2 operations were pure point group operations)
 out of a pool of  2 trial space group operations
 (whereof  2 operations were pure point group operations)
 and found also     1 'primitive' translations


The dynamic configuration has the point symmetry C_1h.

Analysis of constrained symmetry for selective dynamics:

 Subroutine DYNSYM returns: Found  2 space group operations
 (whereof  2 operations were pure point group operations)
 out of a pool of  2 trial space group operations
 (whereof  2 operations were pure point group operations)
 and found also     1 'primitive' translations


The constrained configuration has the point symmetry C_1h.
 
 KPOINTS: Automatic kpoint scheme                 

Automatic generation of k-mesh.
 
 Subroutine IBZKPT returns following result:
 ===========================================
 
 Found      2 irreducible k-points:
 
 Following reciprocal coordinates:
            Coordinates               Weight
  0.250000  0.250000  0.250000      4.000000
 -0.250000  0.250000  0.250000      4.000000
 
 Following cartesian coordinates:
            Coordinates               Weight
  0.030914  0.030914  0.030914      4.000000
 -0.030914  0.030914  0.030914      4.000000
 
    WAVPRE:  cpu time    1.11: real time    1.11
    FEWALD:  cpu time    0.01: real time    0.01
    ORTHCH:  cpu time    6.22: real time    1.58
     LOOP+:  cpu time  903.56: real time  349.84
   RESPFUN:  cpu time    0.01: real time    0.00


----------------------------------------- Iteration    2(   1)  ---------------------------------------


    POTLOK:  cpu time    1.71: real time    1.72
    SETDIJ:  cpu time    0.15: real time    0.15
    EDDIAG:  cpu time    5.51: real time    3.88
  RMM-DIIS:  cpu time   42.59: real time   13.12
    ORTHCH:  cpu time    0.32: real time    0.08
       DOS:  cpu time    0.01: real time    0.00
    CHARGE:  cpu time    2.02: real time    1.93
    MIXING:  cpu time    0.05: real time    0.05
    --------------------------------------------
      LOOP:  cpu time   52.37: real time   20.98

 eigenvalue-minimisations  :   248
 total energy-change (2. order) : 0.6994955E-03  (-0.2544464E-02)
 number of electron   92.9999994 magnetization 
 augmentation part    -1.1856942 magnetization 

 Broyden mixing:
  rms(total) = 0.33673E-02    rms(broyden)= 0.33665E-02
  rms(prec ) = 0.74669E-02
  weight for this iteration     100.00

 Free energy of the ion-electron system (eV)
  ---------------------------------------------------
  alpha Z        PSCENC =        -6.10292531
  Ewald energy   TEWEN  =     -2232.15349800
  -1/2 Hartree   DENC   =       -19.19544099
  -exchange  EXHF       =         0.00000000
  -V(xc)+E(xc)   XCENC  =      -811.44110432
  PAW double counting   =      1106.77047839     -116.57143658
  entropy T*S    EENTRO =        -0.05040159
  eigenvalues    EBANDS =       304.47547705
  atomic energy  EATOM  =      1659.66634407
  ---------------------------------------------------
  free energy    TOTEN  =      -114.60250729 eV

  energy without entropy =     -114.55210570  energy(sigma->0) =     -114.58570676


--------------------------------------------------------------------------------------------------------




----------------------------------------- Iteration    2(   2)  ---------------------------------------


    POTLOK:  cpu time    2.10: real time    2.10
    SETDIJ:  cpu time    0.15: real time    0.15
    EDDIAG:  cpu time    5.50: real time    3.83
  RMM-DIIS:  cpu time   44.07: real time   13.44
    ORTHCH:  cpu time    0.32: real time    0.08
       DOS:  cpu time    0.01: real time    0.00
    CHARGE:  cpu time    2.09: real time    1.99
    MIXING:  cpu time    0.06: real time    0.06
    --------------------------------------------
      LOOP:  cpu time   54.30: real time   21.65

 eigenvalue-minimisations  :   258
 total energy-change (2. order) : 0.5531150E-04  (-0.3749566E-04)
 number of electron   92.9999994 magnetization 
 augmentation part    -1.1856938 magnetization 

 Broyden mixing:
  rms(total) = 0.17957E-02    rms(broyden)= 0.17956E-02
  rms(prec ) = 0.33222E-02
  weight for this iteration     100.00

 eigenvalues of (default mixing * dielectric matrix)
  average eigenvalue GAMMA=   1.9089
  1.9089

[...]
  -------------------------------------------------------------------------------------
  Total      -2.61983    -2.62036    -2.56416     0.00000     0.00000     0.03732
  in kB      -7.93619    -7.93782    -7.76755     0.00000     0.00000     0.11306
  external pressure =       -7.88 kB  Pullay stress =        0.00 kB


 VOLUME and BASIS-vectors are now :
 -----------------------------------------------------------------------------
  energy-cutoff  :      300.00
  volume of cell :      528.90
      direct lattice vectors                 reciprocal lattice vectors
     8.087054000  0.000000000  0.000000000     0.123654423  0.000000000  0.000000000
     0.000000000  8.087054000  0.000000000     0.000000000  0.123654423  0.000000000
     0.000000000  0.000000000  8.087054000     0.000000000  0.000000000  0.123654423

  length of vectors
     8.087054000  8.087054000  8.087054000     0.123654423  0.123654423  0.123654423


 FORCES acting on ions
    electron-ion (+dipol)            ewald-force                    non-local-force                 convergence-correction
 -----------------------------------------------------------------------------------------------
   0.618E-02 -.678E-14 -.393E-02   -.949E-02 0.522E-14 -.225E-02   0.240E-02 0.000E+00 0.505E-02   -.138E-03 0.766E-05 -.395E-04
   -.233E+01 0.269E-13 -.237E+01   0.231E+01 0.111E-15 0.235E+01   0.460E-01 0.000E+00 0.492E-01   0.346E-04 0.219E-05 0.163E-03
   -.233E+01 -.220E+01 0.699E-01   0.231E+01 0.219E+01 -.610E-01   0.450E-01 0.248E-01 -.191E-01   0.108E-04 0.358E-03 0.372E-03
   0.946E-03 -.233E+01 -.240E+01   -.131E-02 0.231E+01 0.238E+01   0.104E-02 0.470E-01 0.428E-01   0.302E-05 0.703E-04 -.220E-04
   -.995E-02 -.827E-13 -.832E-03   0.956E-02 -.777E-14 -.233E-02   -.142E-03 0.000E+00 0.118E-02   0.878E-04 0.736E-05 0.773E-06
   0.233E+01 0.426E-13 -.235E+01   -.231E+01 0.111E-15 0.232E+01   -.442E-01 0.000E+00 0.478E-01   -.737E-04 0.776E-05 -.669E-04
   0.233E+01 -.232E+01 0.633E-03   -.231E+01 0.230E+01 -.228E-02   -.442E-01 0.466E-01 0.976E-03   -.760E-05 -.930E-04 -.118E-04
   0.224E-02 -.756E+01 -.763E+01   -.464E-03 0.765E+01 0.773E+01   -.571E-03 -.110E+00 -.116E+00   -.402E-05 -.710E-04 -.119E-03
   0.122E+00 -.986E-14 0.690E-01   -.112E+00 0.333E-14 -.590E-01   -.166E-01 0.000E+00 -.195E-01   0.346E-03 -.779E-05 0.402E-03
   -.744E+01 -.214E-13 -.807E+01   0.754E+01 0.372E-14 0.807E+01   -.130E+00 0.000E+00 0.405E-01   -.350E-04 -.370E-05 -.118E-02
   -.233E+01 0.220E+01 0.699E-01   0.231E+01 -.219E+01 -.610E-01   0.450E-01 -.248E-01 -.191E-01   0.110E-04 -.358E-03 0.377E-03
   0.946E-03 0.233E+01 -.240E+01   -.131E-02 -.231E+01 0.238E+01   0.104E-02 -.470E-01 0.428E-01   0.786E-05 -.696E-04 -.217E-04
   -.129E+00 0.111E-12 0.756E-01   0.117E+00 0.427E-14 -.640E-01   0.203E-01 0.000E+00 -.223E-01   -.331E-03 -.757E-05 0.364E-03
   0.756E+01 0.217E-13 -.760E+01   -.765E+01 0.239E-14 0.769E+01   0.111E+00 0.000E+00 -.108E+00   0.134E-03 -.774E-05 0.528E-04
   0.233E+01 0.232E+01 0.633E-03   -.231E+01 -.230E+01 -.228E-02   -.442E-01 -.466E-01 0.976E-03   -.786E-05 0.929E-04 -.731E-05
   0.224E-02 0.756E+01 -.763E+01   -.464E-03 -.765E+01 0.773E+01   -.571E-03 0.110E+00 -.116E+00   -.877E-05 0.716E-04 -.119E-03
   -.589E-02 -.517E-15 -.220E-02   0.954E-02 0.000E+00 -.155E-02   -.281E-02 0.000E+00 0.246E-02   0.204E-03 0.736E-05 -.640E-04
   -.233E+01 -.170E-13 0.236E+01   0.231E+01 -.128E-14 -.234E+01   0.430E-01 0.000E+00 -.439E-01   0.214E-04 0.776E-05 -.176E-03
   -.757E+01 -.770E+01 0.781E-01   0.765E+01 0.777E+01 -.626E-01   -.107E+00 -.807E-01 -.269E-01   -.120E-03 -.465E-03 0.324E-03
   0.276E-02 -.233E+01 0.238E+01   0.245E-03 0.231E+01 -.235E+01   -.187E-02 0.471E-01 -.500E-01   0.173E-04 0.459E-04 -.247E-03
   0.984E-02 -.537E-13 -.407E-02   -.961E-02 0.150E-14 -.162E-02   0.161E-02 0.000E+00 0.401E-02   -.150E-03 0.702E-05 -.121E-03
   0.233E+01 -.937E-13 0.235E+01   -.231E+01 -.483E-14 -.232E+01   -.430E-01 0.000E+00 -.458E-01   0.909E-05 0.123E-04 0.156E-03
   0.756E+01 -.757E+01 -.210E-02   -.765E+01 0.766E+01 -.162E-02   0.109E+00 -.108E+00 0.285E-02   0.103E-03 0.113E-03 -.457E-04
   0.196E-02 -.756E+01 0.761E+01   -.799E-03 0.765E+01 -.769E+01   -.121E-02 -.111E+00 0.109E+00   0.316E-04 -.668E-04 -.101E-03
   -.128E+00 -.136E-13 0.716E-01   0.115E+00 -.355E-14 -.575E-01   0.206E-01 0.000E+00 -.228E-01   -.422E-03 -.757E-05 0.331E-03
   -.756E+01 0.906E-14 0.769E+01   0.765E+01 0.810E-14 -.777E+01   -.109E+00 0.000E+00 0.109E+00   -.152E-03 -.774E-05 -.480E-04
   -.757E+01 0.770E+01 0.781E-01   0.765E+01 -.777E+01 -.626E-01   -.107E+00 0.807E-01 -.269E-01   -.119E-03 0.466E-03 0.320E-03
   0.276E-02 0.233E+01 0.238E+01   0.245E-03 -.231E+01 -.235E+01   -.187E-02 -.471E-01 -.500E-01   0.218E-04 -.460E-04 -.247E-03
   0.756E+01 -.450E-14 0.759E+01   -.765E+01 -.255E-14 -.768E+01   0.109E+00 0.000E+00 0.111E+00   0.575E-04 -.121E-04 -.127E-03
   0.756E+01 0.757E+01 -.210E-02   -.765E+01 -.766E+01 -.162E-02   0.109E+00 0.108E+00 0.285E-02   0.102E-03 -.113E-03 -.501E-04
   0.196E-02 0.756E+01 0.761E+01   -.799E-03 -.765E+01 -.769E+01   -.121E-02 0.111E+00 0.109E+00   0.272E-04 0.662E-04 -.101E-03
 -----------------------------------------------------------------------------------------------
   -.809E-02 -.167E-12 0.545E-02   -.185E-13 0.320E-13 0.888E-15   0.848E-02 0.139E-16 -.541E-02   -.339E-03 0.630E-05 -.474E-04
 
 
 POSITION                                       TOTAL-FORCE (eV/Angst)
 -----------------------------------------------------------------------------------
      0.00000      0.00000      0.00000        -0.001049      0.000000     -0.001165
      2.01733      0.00000      2.01733         0.020445      0.000000      0.026162
      2.01733      2.01733      0.00000         0.021243      0.014642     -0.009837
      0.00000      2.01733      2.01733         0.000684      0.020827      0.025794
      4.04353      0.00000      0.00000        -0.000445      0.000000     -0.001981
      6.06972      0.00000      2.01733        -0.022467      0.000000      0.023142
      6.06972      2.01733      0.00000        -0.021737      0.021021     -0.000681
      4.04353      2.04781      2.04781         0.001201     -0.023572     -0.018890
      0.00000      4.04353      0.00000        -0.005402      0.000000     -0.008991
      2.04781      4.04353      2.03281        -0.030680      0.000000      0.033614
      2.01733      6.06972      0.00000         0.021243     -0.014642     -0.009837
      0.00000      6.06972      2.01733         0.000684     -0.020827      0.025794
      4.04353      4.04353      0.00000         0.007275      0.000000     -0.010267
      6.03924      4.04353      2.04781         0.023373      0.000000     -0.020102
      6.06972      6.06972      0.00000        -0.021737     -0.021021     -0.000681
      4.04353      6.03924      2.04781         0.001201      0.023572     -0.018890
      0.00000      0.00000      4.04353         0.001045      0.000000     -0.001351
      2.01733      0.00000      6.06972         0.021368      0.000000     -0.022283
      2.04781      2.04781      4.04353        -0.023630     -0.013337     -0.011042
      0.00000      2.01733      6.06972         0.001153      0.021631     -0.021130
      4.04353      0.00000      4.04353         0.001679      0.000000     -0.001800
      6.06972      0.00000      6.06972        -0.020984      0.000000     -0.022048
      6.03924      2.04781      4.04353         0.021570     -0.023551     -0.000920
      4.04353      2.04781      6.03924        -0.000023     -0.021581      0.023901
      0.00000      4.04353      4.04353         0.006865      0.000000     -0.008384
      2.04781      4.04353      6.03924        -0.023372      0.000000      0.020021
      2.04781      6.03924      4.04353        -0.023630      0.013337     -0.011042
      0.00000      6.06972      6.06972         0.001153     -0.021631     -0.021130
      6.03924      4.04353      6.03924         0.021429      0.000000      0.021047
      6.03924      6.03924      4.04353         0.021570      0.023551     -0.000920
      4.04353      6.03924      6.03924        -0.000023      0.021581      0.023901
 -----------------------------------------------------------------------------------
    total drift:                                0.000056      0.000006     -0.000008
 d Force = 0.6810062E-03[-0.101E-02, 0.237E-02]  d Energy = 0.6931846E-03-0.122E-04
 d Force =-0.2294573E+00[-0.242E+00,-0.217E+00]  d Ewald  =-0.2294618E+00 0.449E-05


--------------------------------------------------------------------------------------------------------


    POTLOK:  cpu time    2.29: real time    2.16


--------------------------------------------------------------------------------------------------------


  FORCES: max atom, RMS     0.045510    0.008174
  FORCE total and by dimension    0.045510    0.033614
 Finite differences progress:
  Degree of freedom:   3/  3
  Displacement:        2/  2
  Total:               6/  6
 
 SECOND DERIVATIVES (NOT SYMMETRIZED)
 ------------------------------------
              10X         10Y         10Z 
 10X    -3.748001    0.000000    0.521056
 10Y    -0.000352   -4.597450   -0.000352
 10Z     0.523156    0.000000   -3.754261
 
 
 Eigenvectors and eigenvalues of the dynamical matrix
 ----------------------------------------------------
 
 
   1 f  =    6.453156 THz    40.546375 2PiTHz  215.254107 cm-1    26.688117 meV
             X         Y         Z           dx          dy          dz
      0.000000  0.000000  0.000000            0           0           0  
      2.017332  0.000000  2.017332            0           0           0  
      2.017332  2.017332  0.000000            0           0           0  
      0.000000  2.017332  2.017332            0           0           0  
      4.043527  0.000000  0.000000            0           0           0  
      6.069722  0.000000  2.017332            0           0           0  
      6.069722  2.017332  0.000000            0           0           0  
      4.043527  2.047812  2.047812            0           0           0  
      0.000000  4.043527  0.000000            0           0           0  
      2.047812  4.043527  2.047812    -0.000127   -1.000000   -0.000130  
      2.017332  6.069722  0.000000            0           0           0  
      0.000000  6.069722  2.017332            0           0           0  
      4.043527  4.043527  0.000000            0           0           0  
      6.039242  4.043527  2.047812            0           0           0  
      6.069722  6.069722  0.000000            0           0           0  
      4.043527  6.039242  2.047812            0           0           0  
      0.000000  0.000000  4.043527            0           0           0  
      2.017332  0.000000  6.069722            0           0           0  
      2.047812  2.047812  4.043527            0           0           0  
      0.000000  2.017332  6.069722            0           0           0  
      4.043527  0.000000  4.043527            0           0           0  
      6.069722  0.000000  6.069722            0           0           0  
      6.039242  2.047812  4.043527            0           0           0  
      4.043527  2.047812  6.039242            0           0           0  
      0.000000  4.043527  4.043527            0           0           0  
      2.047812  4.043527  6.039242            0           0           0  
      2.047812  6.039242  4.043527            0           0           0  
      0.000000  6.069722  6.069722            0           0           0  
      6.039242  4.043527  6.039242            0           0           0  
      6.039242  6.039242  4.043527            0           0           0  
      4.043527  6.039242  6.039242            0           0           0  
 
   2 f  =    6.221465 THz    39.090615 2PiTHz  207.525713 cm-1    25.729918 meV
             X         Y         Z           dx          dy          dz
      0.000000  0.000000  0.000000            0           0           0  
      2.017332  0.000000  2.017332            0           0           0  
      2.017332  2.017332  0.000000            0           0           0  
      0.000000  2.017332  2.017332            0           0           0  
      4.043527  0.000000  0.000000            0           0           0  
      6.069722  0.000000  2.017332            0           0           0  
      6.069722  2.017332  0.000000            0           0           0  
      4.043527  2.047812  2.047812            0           0           0  
      0.000000  4.043527  0.000000            0           0           0  
      2.047812  4.043527  2.047812    -0.704984   -0.000002    0.709223  
      2.017332  6.069722  0.000000            0           0           0  
      0.000000  6.069722  2.017332            0           0           0  
      4.043527  4.043527  0.000000            0           0           0  
      6.039242  4.043527  2.047812            0           0           0  
      6.069722  6.069722  0.000000            0           0           0  
      4.043527  6.039242  2.047812            0           0           0  
      0.000000  0.000000  4.043527            0           0           0  
      2.017332  0.000000  6.069722            0           0           0  
      2.047812  2.047812  4.043527            0           0           0  
      0.000000  2.017332  6.069722            0           0           0  
      4.043527  0.000000  4.043527            0           0           0  
      6.069722  0.000000  6.069722            0           0           0  
      6.039242  2.047812  4.043527            0           0           0  
      4.043527  2.047812  6.039242            0           0           0  
      0.000000  4.043527  4.043527            0           0           0  
      2.047812  4.043527  6.039242            0           0           0  
      2.047812  6.039242  4.043527            0           0           0  
      0.000000  6.069722  6.069722            0           0           0  
      6.039242  4.043527  6.039242            0           0           0  
      6.039242  6.039242  4.043527            0           0           0  
      4.043527  6.039242  6.039242            0           0           0  
 
   3 f  =    5.408150 THz    33.980407 2PiTHz  180.396450 cm-1    22.366317 meV
             X         Y         Z           dx          dy          dz
      0.000000  0.000000  0.000000            0           0           0  
      2.017332  0.000000  2.017332            0           0           0  
      2.017332  2.017332  0.000000            0           0           0  
      0.000000  2.017332  2.017332            0           0           0  
      4.043527  0.000000  0.000000            0           0           0  
      6.069722  0.000000  2.017332            0           0           0  
      6.069722  2.017332  0.000000            0           0           0  
      4.043527  2.047812  2.047812            0           0           0  
      0.000000  4.043527  0.000000            0           0           0  
      2.047812  4.043527  2.047812    -0.709223    0.000182   -0.704984  
      2.017332  6.069722  0.000000            0           0           0  
      0.000000  6.069722  2.017332            0           0           0  
      4.043527  4.043527  0.000000            0           0           0  
      6.039242  4.043527  2.047812            0           0           0  
      6.069722  6.069722  0.000000            0           0           0  
      4.043527  6.039242  2.047812            0           0           0  
      0.000000  0.000000  4.043527            0           0           0  
      2.017332  0.000000  6.069722            0           0           0  
      2.047812  2.047812  4.043527            0           0           0  
      0.000000  2.017332  6.069722            0           0           0  
      4.043527  0.000000  4.043527            0           0           0  
      6.069722  0.000000  6.069722            0           0           0  
      6.039242  2.047812  4.043527            0           0           0  
      4.043527  2.047812  6.039242            0           0           0  
      0.000000  4.043527  4.043527            0           0           0  
      2.047812  4.043527  6.039242            0           0           0  
      2.047812  6.039242  4.043527            0           0           0  
      0.000000  6.069722  6.069722            0           0           0  
      6.039242  4.043527  6.039242            0           0           0  
      6.039242  6.039242  4.043527            0           0           0  
      4.043527  6.039242  6.039242            0           0           0  
 
 Finite differences POTIM=  1.500000000000000E-002
  LATTYP: Found a simple cubic cell.
 ALAT       =     8.0870540000
  
  Lattice vectors:
  
 A1 = (   8.0870540000,   0.0000000000,   0.0000000000)
 A2 = (   0.0000000000,   8.0870540000,   0.0000000000)
 A3 = (   0.0000000000,   0.0000000000,   8.0870540000)
 Subroutine PRICEL returns:
 Original cell was already a primitive cell.
 

Analysis of symmetry for initial positions (statically):

 Routine SETGRP: Setting up the symmetry group for a 
 simple cubic supercell.


 Subroutine GETGRP returns: Found 48 space group operations
 (whereof 48 operations were pure point group operations)
 out of a pool of 48 trial point group operations.


The static configuration has the point symmetry O_h .

Analysis of symmetry for dynamics (positions and initial velocities):

 Subroutine DYNSYM returns: Found 48 space group operations
 (whereof 48 operations were pure point group operations)
 out of a pool of 48 trial space group operations
 (whereof 48 operations were pure point group operations)
 and found also     1 'primitive' translations


The dynamic configuration has the point symmetry O_h .

Analysis of constrained symmetry for selective dynamics:

 Subroutine DYNSYM returns: Found  4 space group operations
 (whereof  4 operations were pure point group operations)
 out of a pool of 48 trial space group operations
 (whereof 48 operations were pure point group operations)
 and found also     1 'primitive' translations


The constrained configuration has the point symmetry C_2v.
 
 KPOINTS: Automatic kpoint scheme                 

Automatic generation of k-mesh.
 
 Subroutine IBZKPT returns following result:
 ===========================================
 
 Found      2 irreducible k-points:
 
 Following reciprocal coordinates:
            Coordinates               Weight
  0.250000  0.250000  0.250000      4.000000
 -0.250000  0.250000  0.250000      4.000000
 
 Following cartesian coordinates:
            Coordinates               Weight
  0.030914  0.030914  0.030914      4.000000
 -0.030914  0.030914  0.030914      4.000000
 
     LOOP+:  cpu time  299.73: real time  122.14
    4ORBIT:  cpu time    0.00: real time    0.00

 total amount of memory used by VASP on root node 125108. kBytes
========================================================================

   base      :    30000. kBytes
   nonl-proj :     3892. kBytes
   fftplans  :    30736. kBytes
   grid      :    47517. kBytes
   one-center:       95. kBytes
   wavefun   :    12868. kBytes
 
  
  
 General timing and accounting informations for this job:
 ========================================================
  
                  Total CPU time used (sec):     3297.099
                            User time (sec):     3277.468
                          System time (sec):       19.631
                         Elapsed time (sec):     1322.433
  
                   Maximum memory used (kb):           0.
                   Average memory used (kb):           0.
  
                          Minor page faults:       658694
                          Major page faults:            0
                 Voluntary context switches:        21014
