<?xml version="1.0" encoding="ISO-8859-1"?>
<modeling>
 <generator>
  <i name="program" type="string">vasp </i>
  <i name="version" type="string">5.2.2  </i>
  <i name="subversion" type="string">15Apr09 complex  parallel </i>
  <i name="platform" type="string">LinuxIFC </i>
  <i name="date" type="string">2014 04 24 </i>
  <i name="time" type="string">10:26:39 </i>
 </generator>
 <incar>
  <i type="string" name="PREC">accurate</i>
  <i type="int" name="IALGO">    48</i>
  <i type="int" name="IBRION">     5</i>
  <i name="EDIFFG">      0.05000000</i>
  <i type="int" name="NSW">   191</i>
  <i type="int" name="ISIF">     2</i>
  <i name="ENCUT">    300.00000000</i>
  <i name="NELECT">     93.00000000</i>
  <i type="int" name="ISMEAR">     1</i>
  <i name="SIGMA">      0.20000000</i>
  <i type="logical" name="LWAVE"> F  </i>
  <i type="logical" name="LCHARG"> F  </i>
  <i type="logical" name="LPEAD"> F  </i>
  <i type="logical" name="LCALCPOL"> F  </i>
  <i type="logical" name="LCALCEPS"> F  </i>
  <v name="EFIELD_PEAD">      0.00000000      0.00000000      0.00000000</v>
  <i type="logical" name="LEFG"> F  </i>
 </incar>
 <kpoints>
  <generation param="Monkhorst-Pack">
   <v type="int" name="divisions">       2        2        2 </v>
   <v name="usershift">      0.00000000       0.00000000       0.00000000 </v>
   <v name="genvec1">      0.50000000       0.00000000       0.00000000 </v>
   <v name="genvec2">      0.00000000       0.50000000       0.00000000 </v>
   <v name="genvec3">      0.00000000       0.00000000       0.50000000 </v>
   <v name="shift">      0.50000000       0.50000000       0.50000000 </v>
  </generation>
  <varray name="kpointlist" >
   <v>       0.25000000       0.25000000       0.25000000 </v>
   <v>      -0.25000000       0.25000000       0.25000000 </v>
  </varray>
  <varray name="weights" >
   <v>       0.50000000 </v>
   <v>       0.50000000 </v>
  </varray>
 </kpoints>
 <parameters>
  <separator name="general" >
   <i type="string" name="SYSTEM">unknown system</i>
   <i type="logical" name="LCOMPAT"> F  </i>
  </separator>
  <separator name="electronic" >
   <i type="string" name="PREC">accura</i>
   <i name="ENMAX">    300.00000000</i>
   <i name="ENAUG">    291.05200000</i>
   <i name="EDIFF">      0.00000100</i>
   <i type="int" name="IALGO">    48</i>
   <i type="int" name="IWAVPR">    11</i>
   <i type="int" name="NBANDS">    62</i>
   <i name="NELECT">     93.00000000</i>
   <separator name="electronic smearing" >
    <i type="int" name="ISMEAR">     1</i>
    <i name="SIGMA">      0.20000000</i>
   </separator>
   <separator name="electronic projectors" >
    <i type="logical" name="LREAL"> F  </i>
    <v name="ROPT">      0.00000000</v>
    <i type="int" name="LMAXPAW">  -100</i>
    <i type="int" name="LMAXMIX">     2</i>
   </separator>
   <separator name="electronic startup" >
    <i type="int" name="ISTART">     0</i>
    <i type="int" name="ICHARG">     2</i>
    <i type="int" name="INIWAV">     1</i>
   </separator>
   <separator name="electronic spin" >
    <i type="int" name="ISPIN">     1</i>
    <i type="logical" name="LNONCOLLINEAR"> F  </i>
    <v name="MAGMOM">      1.00000000      1.00000000      1.00000000      1.00000000      1.00000000      1.00000000      1.00000000      1.00000000      1.00000000      1.00000000      1.00000000      1.00000000      1.00000000      1.00000000      1.00000000      1.00000000      1.00000000      1.00000000      1.00000000      1.00000000
      1.00000000      1.00000000      1.00000000      1.00000000      1.00000000      1.00000000      1.00000000      1.00000000      1.00000000      1.00000000      1.00000000</v>
    <i name="NUPDOWN">     -1.00000000</i>
    <i type="logical" name="LSORBIT"> F  </i>
    <v name="SAXIS">      0.00000000      0.00000000      1.00000000</v>
    <i type="logical" name="LSPIRAL"> F  </i>
    <v name="QSPIRAL">      0.00000000      0.00000000      0.00000000</v>
    <i type="logical" name="LZEROZ"> F  </i>
   </separator>
   <separator name="electronic exchange-correlation" >
    <i type="logical" name="LASPH"> F  </i>
    <i type="logical" name="LMETAGGA"> F  </i>
   </separator>
   <separator name="electronic convergence" >
    <i type="int" name="NELM">    60</i>
    <i type="int" name="NELMDL">   -12</i>
    <i type="int" name="NELMIN">     2</i>
    <i name="ENINI">    300.00000000</i>
    <separator name="electronic convergence detail" >
     <i type="logical" name="LDIAG"> T  </i>
     <i name="WEIMIN">      0.00100000</i>
     <i name="EBREAK">      0.00000000</i>
     <i name="DEPER">      0.30000000</i>
     <i type="int" name="NRMM">     4</i>
     <i name="TIME">      0.40000000</i>
    </separator>
   </separator>
   <separator name="electronic mixer" >
    <i name="AMIX">      0.40000000</i>
    <i name="BMIX">      1.00000000</i>
    <i name="AMIN">      0.10000000</i>
    <i name="AMIX_MAG">      1.60000000</i>
    <i name="BMIX_MAG">      1.00000000</i>
    <separator name="electronic mixer details" >
     <i type="int" name="IMIX">     4</i>
     <i type="int" name="MAXMIX">   -45</i>
     <i name="WC">    100.00000000</i>
     <i type="int" name="INIMIX">     1</i>
     <i type="int" name="MIXPRE">     1</i>
     <i type="int" name="MREMOVE">     5</i>
    </separator>
   </separator>
   <separator name="electronic dipolcorrection" >
    <i type="logical" name="LDIPOL"> F  </i>
    <i type="logical" name="LMONO"> F  </i>
    <i type="int" name="IDIPOL">     0</i>
    <i name="EPSILON">      1.00000000</i>
    <v name="DIPOL">   -100.00000000   -100.00000000   -100.00000000</v>
    <i name="EFIELD">      0.00000000</i>
   </separator>
  </separator>
  <separator name="grids" >
   <i type="int" name="NGX">    48</i>
   <i type="int" name="NGY">    48</i>
   <i type="int" name="NGZ">    48</i>
   <i type="int" name="NGXF">    96</i>
   <i type="int" name="NGYF">    96</i>
   <i type="int" name="NGZF">    96</i>
   <i type="logical" name="ADDGRID"> F  </i>
  </separator>
  <separator name="ionic" >
   <i type="int" name="NSW">   382</i>
   <i type="int" name="IBRION">     5</i>
   <i type="int" name="ISIF">     2</i>
   <i name="PSTRESS">      0.00000000</i>
   <i name="EDIFFG">      0.05000000</i>
   <i type="int" name="NFREE">     2</i>
   <i name="POTIM">      0.50000000</i>
   <i name="SMASS">     -3.00000000</i>
  </separator>
  <separator name="ionic md" >
   <i name="TEBEG">      0.00010000</i>
   <i name="TEEND">      0.00010000</i>
   <i type="int" name="NBLOCK">     1</i>
   <i type="int" name="KBLOCK">   191</i>
   <i type="int" name="NPACO">   256</i>
   <i name="APACO">     16.00000000</i>
  </separator>
  <separator name="symmetry" >
   <i type="int" name="ISYM">     2</i>
   <i name="SYMPREC">      0.00001000</i>
  </separator>
  <separator name="dos" >
   <i type="logical" name="LORBIT"> F  </i>
   <v name="RWIGS">     -1.00000000</v>
   <i type="int" name="NEDOS">   301</i>
   <i name="EMIN">     10.00000000</i>
   <i name="EMAX">    -10.00000000</i>
   <i name="EFERMI">      0.00000000</i>
  </separator>
  <separator name="writing" >
   <i type="int" name="NWRITE">     2</i>
   <i type="logical" name="LWAVE"> F  </i>
   <i type="logical" name="LCHARG"> F  </i>
   <i type="logical" name="LPARD"> F  </i>
   <i type="logical" name="LVTOT"> F  </i>
   <i type="logical" name="LELF"> F  </i>
   <i type="logical" name="LOPTICS"> F  </i>
   <v name="STM">      0.00000000      0.00000000      0.00000000      0.00000000      0.00000000</v>
  </separator>
  <separator name="performance" >
   <i type="int" name="NPAR">     1</i>
   <i type="int" name="NSIM">     4</i>
   <i type="int" name="NBLK">    32</i>
   <i type="logical" name="LPLANE"> T  </i>
   <i type="logical" name="LSCALAPACK"> F  </i>
   <i type="logical" name="LSCAAWARE"> F  </i>
   <i type="logical" name="LSCALU"> F  </i>
   <i type="logical" name="LASYNC"> F  </i>
  </separator>
  <separator name="miscellaneous" >
   <i type="int" name="IDIOT">     3</i>
   <i type="logical" name="LMUSIC"> F  </i>
   <v name="POMASS">     26.98200000</v>
   <i type="logical" name="LCORR"> T  </i>
  </separator>
  <i type="logical" name="LREAL_COMPAT"> F  </i>
  <i type="logical" name="GGA_COMPAT"> T  </i>
  <i type="logical" name="LBERRY"> F  </i>
  <i type="int" name="ICORELEVEL">     0</i>
  <i type="logical" name="LDAU"> F  </i>
  <i type="int" name="I_CONSTRAINED_M">     0</i>
  <separator name="electronic exchange-correlation" >
   <i type="string" name="GGA">--</i>
   <i type="int" name="VOSKOWN">     0</i>
   <i type="logical" name="LHFCALC"> F  </i>
   <i type="logical" name="LHFONE"> F  </i>
   <i type="logical" name="LRHFCALC"> F  </i>
   <i type="logical" name="LTHOMAS"> F  </i>
   <i type="logical" name="LMODELHF"> F  </i>
   <i name="ENCUTFOCK">      0.00000000</i>
   <i name="ENCUT4O">     -1.00000000</i>
   <i type="int" name="EXXOEP">     0</i>
   <i type="int" name="FOURORBIT">     0</i>
   <i name="AEXX">      0.00000000</i>
   <i name="HFALPHA">      0.00000000</i>
   <i name="ALDAX">      1.00000000</i>
   <i name="AGGAX">      1.00000000</i>
   <i name="ALDAC">      1.00000000</i>
   <i name="AGGAC">      1.00000000</i>
   <i type="int" name="NKREDX">     1</i>
   <i type="int" name="NKREDY">     1</i>
   <i type="int" name="NKREDZ">     1</i>
   <i type="logical" name="SHIFTRED"> F  </i>
   <i type="logical" name="ODDONLY"> F  </i>
   <i type="logical" name="EVENONLY"> F  </i>
   <i type="int" name="LMAXFOCK">     0</i>
   <i type="int" name="NMAXFOCKAE">     0</i>
   <i name="HFSCREEN">      0.00000000</i>
   <i name="HFSCREENC">      0.00000000</i>
  </separator>
  <separator name="model GW" >
   <i type="int" name="MODEL_GW">     0</i>
   <i name="MODEL_EPS0">     10.23671437</i>
   <i name="MODEL_ALPHA">      1.00000000</i>
  </separator>
  <separator name="linear response parameters" >
   <i type="logical" name="LEPSILON"> F  </i>
   <i type="logical" name="LRPA"> F  </i>
   <i type="logical" name="LNABLA"> F  </i>
   <i type="logical" name="LVEL"> F  </i>
   <i type="int" name="KINTER">     0</i>
   <i name="CSHIFT">      0.10000000</i>
   <i name="OMEGAMAX">     -1.00000000</i>
  </separator>
  <separator name="orbital magnetization" >
   <i type="logical" name="ORBITALMAG"> F  </i>
   <i type="logical" name="LMAGBLOCH"> F  </i>
   <i type="logical" name="LCHIMAG"> F  </i>
   <i type="logical" name="LGAUGE"> T  </i>
   <i type="int" name="MAGATOM">     0</i>
   <v name="MAGDIPOL">      0.00000000      0.00000000      0.00000000</v>
   <v name="AVECCONST">      0.00000000      0.00000000      0.00000000</v>
  </separator>
  <separator name="response functions" >
   <i type="logical" name="LRPA"> T  </i>
   <i type="logical" name="LTCTE"> F  </i>
   <i type="logical" name="LTETE"> F  </i>
   <i type="logical" name="L2ORDER"> F  </i>
   <i type="logical" name="LGWLF"> F  </i>
   <i name="ENCUTGW">    200.00000000</i>
   <i name="ENCUTGWSOFT">     -2.00000000</i>
   <i name="ENCUTLF">     -1.00000000</i>
   <i type="int" name="LMAXMP2">    -1</i>
   <i name="SCISSOR">      0.00000000</i>
   <i type="int" name="NOMEGA">     0</i>
   <i type="int" name="NOMEGAR">     0</i>
   <i type="int" name="NBANDSGW">    -1</i>
   <i type="int" name="NBANDSLF">    -1</i>
   <i type="int" name="NELM">     1</i>
   <i type="int" name="DIM">     3</i>
   <i type="int" name="ANTIRES">     0</i>
   <i type="logical" name="LUSEW"> F  </i>
   <i name="OMEGAMAX">    -30.00000000</i>
   <i name="OMEGATL">   -200.00000000</i>
   <i type="int" name="OMEGAGRID">     0</i>
   <i name="CSHIFT">     -0.10000000</i>
   <i type="logical" name="SELFENERGY"> F  </i>
   <i type="logical" name="LSPECTRAL"> F  </i>
   <i type="logical" name="ODDONLYGW"> F  </i>
   <i type="logical" name="EVENONLYGW"> F  </i>
   <i type="int" name="NKREDLFX">     1</i>
   <i type="int" name="NKREDLFY">     1</i>
   <i type="int" name="NKREDLFZ">     1</i>
   <i type="int" name="MAXMEM">  1024</i>
   <i type="int" name="TELESCOPE">     0</i>
  </separator>
 </parameters>
 <atominfo>
  <atoms>      31 </atoms>
  <types>       1 </types>
  <array name="atoms" >
   <dimension dim="1">ion</dimension>
   <field type="string">element</field>
   <field type="int">atomtype</field>
   <set>
    <rc><c>Al</c><c>   1</c></rc>
    <rc><c>Al</c><c>   1</c></rc>
    <rc><c>Al</c><c>   1</c></rc>
    <rc><c>Al</c><c>   1</c></rc>
    <rc><c>Al</c><c>   1</c></rc>
    <rc><c>Al</c><c>   1</c></rc>
    <rc><c>Al</c><c>   1</c></rc>
    <rc><c>Al</c><c>   1</c></rc>
    <rc><c>Al</c><c>   1</c></rc>
    <rc><c>Al</c><c>   1</c></rc>
    <rc><c>Al</c><c>   1</c></rc>
    <rc><c>Al</c><c>   1</c></rc>
    <rc><c>Al</c><c>   1</c></rc>
    <rc><c>Al</c><c>   1</c></rc>
    <rc><c>Al</c><c>   1</c></rc>
    <rc><c>Al</c><c>   1</c></rc>
    <rc><c>Al</c><c>   1</c></rc>
    <rc><c>Al</c><c>   1</c></rc>
    <rc><c>Al</c><c>   1</c></rc>
    <rc><c>Al</c><c>   1</c></rc>
    <rc><c>Al</c><c>   1</c></rc>
    <rc><c>Al</c><c>   1</c></rc>
    <rc><c>Al</c><c>   1</c></rc>
    <rc><c>Al</c><c>   1</c></rc>
    <rc><c>Al</c><c>   1</c></rc>
    <rc><c>Al</c><c>   1</c></rc>
    <rc><c>Al</c><c>   1</c></rc>
    <rc><c>Al</c><c>   1</c></rc>
    <rc><c>Al</c><c>   1</c></rc>
    <rc><c>Al</c><c>   1</c></rc>
    <rc><c>Al</c><c>   1</c></rc>
   </set>
  </array>
  <array name="atomtypes" >
   <dimension dim="1">type</dimension>
   <field type="int">atomspertype</field>
   <field type="string">element</field>
   <field>mass</field>
   <field>valence</field>
   <field type="string">pseudopotential</field>
   <set>
    <rc><c>  31</c><c>Al</c><c>     26.98200000</c><c>      3.00000000</c><c> PAW_PBE Al 04Jan2001                   </c></rc>
   </set>
  </array>
 </atominfo>
 <structure name="initialpos" >
  <crystal>
   <varray name="basis" >
    <v>       8.08705400       0.00000000       0.00000000 </v>
    <v>       0.00000000       8.08705400       0.00000000 </v>
    <v>       0.00000000       0.00000000       8.08705400 </v>
   </varray>
   <i name="volume">    528.89690930 </i>
   <varray name="rec_basis" >
    <v>       0.12365442       0.00000000       0.00000000 </v>
    <v>       0.00000000       0.12365442       0.00000000 </v>
    <v>       0.00000000       0.00000000       0.12365442 </v>
   </varray>
  </crystal>
  <varray name="positions" >
   <v>       0.00000000       0.00000000       0.00000000 </v>
   <v>       0.24945200       0.00000000       0.24945200 </v>
   <v>       0.24945200       0.24945200       0.00000000 </v>
   <v>       0.00000000       0.24945200       0.24945200 </v>
   <v>       0.50000000       0.00000000       0.00000000 </v>
   <v>       0.75054800       0.00000000       0.24945200 </v>
   <v>       0.75054800       0.24945200       0.00000000 </v>
   <v>       0.50000000       0.25322100       0.25322100 </v>
   <v>       0.00000000       0.50000000       0.00000000 </v>
   <v>       0.25322100       0.50000000       0.25322100 </v>
   <v>       0.24945200       0.75054800       0.00000000 </v>
   <v>       0.00000000       0.75054800       0.24945200 </v>
   <v>       0.50000000       0.50000000       0.00000000 </v>
   <v>       0.74677900       0.50000000       0.25322100 </v>
   <v>       0.75054800       0.75054800       0.00000000 </v>
   <v>       0.50000000       0.74677900       0.25322100 </v>
   <v>       0.00000000       0.00000000       0.50000000 </v>
   <v>       0.24945200       0.00000000       0.75054800 </v>
   <v>       0.25322100       0.25322100       0.50000000 </v>
   <v>       0.00000000       0.24945200       0.75054800 </v>
   <v>       0.50000000       0.00000000       0.50000000 </v>
   <v>       0.75054800       0.00000000       0.75054800 </v>
   <v>       0.74677900       0.25322100       0.50000000 </v>
   <v>       0.50000000       0.25322100       0.74677900 </v>
   <v>       0.00000000       0.50000000       0.50000000 </v>
   <v>       0.25322100       0.50000000       0.74677900 </v>
   <v>       0.25322100       0.74677900       0.50000000 </v>
   <v>       0.00000000       0.75054800       0.75054800 </v>
   <v>       0.74677900       0.50000000       0.74677900 </v>
   <v>       0.74677900       0.74677900       0.50000000 </v>
   <v>       0.50000000       0.74677900       0.74677900 </v>
  </varray>
  <varray name="selective"  type="logical" >
   <v type="logical" >  F  F  F </v>
   <v type="logical" >  F  F  F </v>
   <v type="logical" >  F  F  F </v>
   <v type="logical" >  F  F  F </v>
   <v type="logical" >  F  F  F </v>
   <v type="logical" >  F  F  F </v>
   <v type="logical" >  F  F  F </v>
   <v type="logical" >  F  F  F </v>
   <v type="logical" >  F  F  F </v>
   <v type="logical" >  T  T  T </v>
   <v type="logical" >  F  F  F </v>
   <v type="logical" >  F  F  F </v>
   <v type="logical" >  F  F  F </v>
   <v type="logical" >  F  F  F </v>
   <v type="logical" >  F  F  F </v>
   <v type="logical" >  F  F  F </v>
   <v type="logical" >  F  F  F </v>
   <v type="logical" >  F  F  F </v>
   <v type="logical" >  F  F  F </v>
   <v type="logical" >  F  F  F </v>
   <v type="logical" >  F  F  F </v>
   <v type="logical" >  F  F  F </v>
   <v type="logical" >  F  F  F </v>
   <v type="logical" >  F  F  F </v>
   <v type="logical" >  F  F  F </v>
   <v type="logical" >  F  F  F </v>
   <v type="logical" >  F  F  F </v>
   <v type="logical" >  F  F  F </v>
   <v type="logical" >  F  F  F </v>
   <v type="logical" >  F  F  F </v>
   <v type="logical" >  F  F  F </v>
  </varray>
  <nose>
   <v>      -3.00000000       0.00000000       0.00010000       0.00010000 </v>
  </nose>
 </structure>
 <calculation>
  <scstep>
   <time name="diag">    5.45    3.81</time>
   <time name="diis">   21.55    7.14</time>
   <time name="orth">    0.36    0.09</time>
   <time name="total">   29.21   12.89</time>
   <energy>
    <i name="alphaZ">     -6.10292531 </i>
    <i name="ewald">  -2232.04189804 </i>
    <i name="hartreedc">    -17.07714254 </i>
    <i name="XCdc">   -814.85524565 </i>
    <i name="pawpsdc">   1102.18190231 </i>
    <i name="pawaedc">   -111.56847430 </i>
    <i name="eentropy">     -0.03346381 </i>
    <i name="bandstr">    726.13400710 </i>
    <i name="atom">   1659.66634407 </i>
    <i name="e_fr_energy">    306.30310384 </i>
    <i name="e_wo_entrp">    306.33656764 </i>
    <i name="e_0_energy">    306.31425844 </i>
   </energy>
  </scstep>
  <scstep>
   <time name="diag">    5.25    3.55</time>
   <time name="diis">   22.36    7.25</time>
   <time name="orth">    0.36    0.09</time>
   <time name="total">   28.01   10.91</time>
   <energy>
    <i name="e_fr_energy">     -8.81050140 </i>
    <i name="e_wo_entrp">     -8.82867797 </i>
    <i name="e_0_energy">     -8.81656026 </i>
   </energy>
  </scstep>
  <scstep>
   <time name="diag">    5.12    3.55</time>
   <time name="diis">   21.79    7.17</time>
   <time name="orth">    0.36    0.09</time>
   <time name="total">   27.38   10.87</time>
   <energy>
    <i name="e_fr_energy">    -83.89152525 </i>
    <i name="e_wo_entrp">    -83.86376022 </i>
    <i name="e_0_energy">    -83.88227024 </i>
   </energy>
  </scstep>
  <scstep>
   <time name="diag">    5.13    3.52</time>
   <time name="diis">   21.86    7.19</time>
   <time name="orth">    0.36    0.09</time>
   <time name="total">   27.42   10.82</time>
   <energy>
    <i name="e_fr_energy">   -103.47304814 </i>
    <i name="e_wo_entrp">   -103.52857952 </i>
    <i name="e_0_energy">   -103.49155860 </i>
   </energy>
  </scstep>
  <scstep>
   <time name="diag">    5.28    3.55</time>
   <time name="diis">   22.04    7.21</time>
   <time name="orth">    0.36    0.09</time>
   <time name="total">   27.69   10.85</time>
   <energy>
    <i name="e_fr_energy">   -110.33642791 </i>
    <i name="e_wo_entrp">   -110.32347401 </i>
    <i name="e_0_energy">   -110.33210994 </i>
   </energy>
  </scstep>
  <scstep>
   <time name="diag">    5.15    3.49</time>
   <time name="diis">   22.30    7.29</time>
   <time name="orth">    0.36    0.09</time>
   <time name="total">   27.82   10.87</time>
   <energy>
    <i name="e_fr_energy">   -113.10437073 </i>
    <i name="e_wo_entrp">   -113.06468836 </i>
    <i name="e_0_energy">   -113.09114327 </i>
   </energy>
  </scstep>
  <scstep>
   <time name="diag">    4.89    3.48</time>
   <time name="diis">   21.88    7.19</time>
   <time name="orth">    0.36    0.09</time>
   <time name="total">   27.24   10.83</time>
   <energy>
    <i name="e_fr_energy">   -114.28715762 </i>
    <i name="e_wo_entrp">   -114.24527357 </i>
    <i name="e_0_energy">   -114.27319627 </i>
   </energy>
  </scstep>
  <scstep>
   <time name="diag">    5.21    3.55</time>
   <time name="diis">   22.21    7.23</time>
   <time name="orth">    0.36    0.09</time>
   <time name="total">   27.86   10.89</time>
   <energy>
    <i name="e_fr_energy">   -114.82230526 </i>
    <i name="e_wo_entrp">   -114.78639346 </i>
    <i name="e_0_energy">   -114.81033466 </i>
   </energy>
  </scstep>
  <scstep>
   <time name="diag">    5.15    3.49</time>
   <time name="diis">   51.03   14.91</time>
   <time name="orth">    0.34    0.08</time>
   <time name="total">   56.54   18.50</time>
   <energy>
    <i name="e_fr_energy">   -115.31509133 </i>
    <i name="e_wo_entrp">   -115.27274885 </i>
    <i name="e_0_energy">   -115.30097717 </i>
   </energy>
  </scstep>
  <scstep>
   <time name="diag">    5.13    3.49</time>
   <time name="diis">   51.95   15.01</time>
   <time name="orth">    0.34    0.08</time>
   <time name="total">   57.44   18.60</time>
   <energy>
    <i name="e_fr_energy">   -115.40529184 </i>
    <i name="e_wo_entrp">   -115.35742151 </i>
    <i name="e_0_energy">   -115.38933506 </i>
   </energy>
  </scstep>
  <scstep>
   <time name="diag">    4.77    3.37</time>
   <time name="diis">   47.43   13.84</time>
   <time name="orth">    0.34    0.08</time>
   <time name="total">   52.63   17.36</time>
   <energy>
    <i name="e_fr_energy">   -115.42749860 </i>
    <i name="e_wo_entrp">   -115.37719062 </i>
    <i name="e_0_energy">   -115.41072928 </i>
   </energy>
  </scstep>
  <scstep>
   <time name="diag">    5.05    3.47</time>
   <time name="diis">   43.14   12.69</time>
   <time name="orth">    0.34    0.08</time>
   <time name="total">   50.69   18.29</time>
   <energy>
    <i name="e_fr_energy">   -115.42865402 </i>
    <i name="e_wo_entrp">   -115.37798476 </i>
    <i name="e_0_energy">   -115.41176427 </i>
   </energy>
  </scstep>
  <scstep>
   <time name="diag">    5.63    3.94</time>
   <time name="diis">   41.79   12.66</time>
   <time name="orth">    0.34    0.08</time>
   <time name="total">   52.45   21.28</time>
   <energy>
    <i name="e_fr_energy">   -114.89254663 </i>
    <i name="e_wo_entrp">   -114.84288065 </i>
    <i name="e_0_energy">   -114.87599131 </i>
   </energy>
  </scstep>
  <scstep>
   <time name="diag">    5.54    3.89</time>
   <time name="diis">   42.06   12.76</time>
   <time name="orth">    0.34    0.08</time>
   <time name="total">   52.46   21.21</time>
   <energy>
    <i name="e_fr_energy">   -114.62717098 </i>
    <i name="e_wo_entrp">   -114.57683677 </i>
    <i name="e_0_energy">   -114.61039291 </i>
   </energy>
  </scstep>
  <scstep>
   <time name="diag">    5.55    3.88</time>
   <time name="diis">   44.16   13.25</time>
   <time name="orth">    0.34    0.08</time>
   <time name="total">   54.64   21.67</time>
   <energy>
    <i name="e_fr_energy">   -114.60379851 </i>
    <i name="e_wo_entrp">   -114.55360221 </i>
    <i name="e_0_energy">   -114.58706641 </i>
   </energy>
  </scstep>
  <scstep>
   <time name="diag">    5.29    3.59</time>
   <time name="diis">   43.57   13.07</time>
   <time name="orth">    0.34    0.08</time>
   <time name="total">   53.58   20.92</time>
   <energy>
    <i name="e_fr_energy">   -114.60315451 </i>
    <i name="e_wo_entrp">   -114.55287617 </i>
    <i name="e_0_energy">   -114.58639506 </i>
   </energy>
  </scstep>
  <scstep>
   <time name="diag">    5.49    3.81</time>
   <time name="diis">   46.89   13.81</time>
   <time name="orth">    0.34    0.08</time>
   <time name="total">   57.23   22.00</time>
   <energy>
    <i name="e_fr_energy">   -114.60319016 </i>
    <i name="e_wo_entrp">   -114.55298648 </i>
    <i name="e_0_energy">   -114.58645560 </i>
   </energy>
  </scstep>
  <scstep>
   <time name="diag">    5.29    3.59</time>
   <time name="diis">   48.72   14.15</time>
   <time name="orth">    0.34    0.08</time>
   <time name="total">   58.80   22.01</time>
   <energy>
    <i name="e_fr_energy">   -114.60320327 </i>
    <i name="e_wo_entrp">   -114.55298544 </i>
    <i name="e_0_energy">   -114.58646400 </i>
   </energy>
  </scstep>
  <scstep>
   <time name="diag">    5.29    3.59</time>
   <time name="diis">   35.26   10.62</time>
   <time name="orth">    0.34    0.08</time>
   <time name="total">   45.34   18.48</time>
   <energy>
    <i name="e_fr_energy">   -114.60320678 </i>
    <i name="e_wo_entrp">   -114.55299252 </i>
    <i name="e_0_energy">   -114.58646869 </i>
   </energy>
  </scstep>
  <scstep>
   <time name="diag">    5.29    3.59</time>
   <time name="diis">   23.92    7.61</time>
   <time name="orth">    0.34    0.08</time>
   <time name="total">   31.85   13.46</time>
   <energy>
    <i name="alphaZ">     -6.10292531 </i>
    <i name="ewald">  -2232.04189804 </i>
    <i name="hartreedc">    -19.28951041 </i>
    <i name="XCdc">   -811.43890762 </i>
    <i name="pawpsdc">   1106.77497304 </i>
    <i name="pawaedc">   -116.57604540 </i>
    <i name="eentropy">     -0.05021432 </i>
    <i name="bandstr">    304.45497704 </i>
    <i name="atom">   1659.66634407 </i>
    <i name="e_fr_energy">   -114.60320696 </i>
    <i name="e_wo_entrp">   -114.55299264 </i>
    <i name="e_0_energy">   -114.58646885 </i>
   </energy>
  </scstep>
  <structure>
   <crystal>
    <varray name="basis" >
     <v>       8.08705400       0.00000000       0.00000000 </v>
     <v>       0.00000000       8.08705400       0.00000000 </v>
     <v>       0.00000000       0.00000000       8.08705400 </v>
    </varray>
    <i name="volume">    528.89690930 </i>
    <varray name="rec_basis" >
     <v>       0.12365442       0.00000000       0.00000000 </v>
     <v>       0.00000000       0.12365442       0.00000000 </v>
     <v>       0.00000000       0.00000000       0.12365442 </v>
    </varray>
   </crystal>
   <varray name="positions" >
    <v>       0.00000000       0.00000000       0.00000000 </v>
    <v>       0.24945200       0.00000000       0.24945200 </v>
    <v>       0.24945200       0.24945200       0.00000000 </v>
    <v>       0.00000000       0.24945200       0.24945200 </v>
    <v>       0.50000000       0.00000000       0.00000000 </v>
    <v>       0.75054800       0.00000000       0.24945200 </v>
    <v>       0.75054800       0.24945200       0.00000000 </v>
    <v>       0.50000000       0.25322100       0.25322100 </v>
    <v>       0.00000000       0.50000000       0.00000000 </v>
    <v>       0.25322100       0.50000000       0.25322100 </v>
    <v>       0.24945200       0.75054800       0.00000000 </v>
    <v>       0.00000000       0.75054800       0.24945200 </v>
    <v>       0.50000000       0.50000000       0.00000000 </v>
    <v>       0.74677900       0.50000000       0.25322100 </v>
    <v>       0.75054800       0.75054800       0.00000000 </v>
    <v>       0.50000000       0.74677900       0.25322100 </v>
    <v>       0.00000000       0.00000000       0.50000000 </v>
    <v>       0.24945200       0.00000000       0.75054800 </v>
    <v>       0.25322100       0.25322100       0.50000000 </v>
    <v>       0.00000000       0.24945200       0.75054800 </v>
    <v>       0.50000000       0.00000000       0.50000000 </v>
    <v>       0.75054800       0.00000000       0.75054800 </v>
    <v>       0.74677900       0.25322100       0.50000000 </v>
    <v>       0.50000000       0.25322100       0.74677900 </v>
    <v>       0.00000000       0.50000000       0.50000000 </v>
    <v>       0.25322100       0.50000000       0.74677900 </v>
    <v>       0.25322100       0.74677900       0.50000000 </v>
    <v>       0.00000000       0.75054800       0.75054800 </v>
    <v>       0.74677900       0.50000000       0.74677900 </v>
    <v>       0.74677900       0.74677900       0.50000000 </v>
    <v>       0.50000000       0.74677900       0.74677900 </v>
   </varray>
  </structure>
  <varray name="forces" >
   <v>      -0.00000072       0.00000000      -0.00000072 </v>
   <v>       0.02224796       0.00000000       0.02224796 </v>
   <v>       0.02224644       0.02224737       0.00000012 </v>
   <v>       0.00000012       0.02224737       0.02224644 </v>
   <v>       0.00000252       0.00000000      -0.00000204 </v>
   <v>      -0.02224699       0.00000000       0.02224625 </v>
   <v>      -0.02224842       0.02224463      -0.00000289 </v>
   <v>      -0.00000103      -0.02306467      -0.02306338 </v>
   <v>       0.00000086       0.00000000       0.00000086 </v>
   <v>      -0.02306156       0.00000000      -0.02306156 </v>
   <v>       0.02224644      -0.02224737       0.00000012 </v>
   <v>       0.00000012      -0.02224737       0.02224644 </v>
   <v>       0.00000110       0.00000000      -0.00000196 </v>
   <v>       0.02306367       0.00000000      -0.02306181 </v>
   <v>      -0.02224842      -0.02224463      -0.00000289 </v>
   <v>      -0.00000103       0.02306467      -0.02306338 </v>
   <v>      -0.00000204       0.00000000       0.00000252 </v>
   <v>       0.02224625       0.00000000      -0.02224699 </v>
   <v>      -0.02306338      -0.02306467      -0.00000103 </v>
   <v>      -0.00000289       0.02224463      -0.02224842 </v>
   <v>       0.00000285       0.00000000       0.00000285 </v>
   <v>      -0.02224804       0.00000000      -0.02224804 </v>
   <v>       0.02306440      -0.02306500       0.00000294 </v>
   <v>       0.00000294      -0.02306500       0.02306440 </v>
   <v>      -0.00000196       0.00000000       0.00000110 </v>
   <v>      -0.02306181       0.00000000       0.02306367 </v>
   <v>      -0.02306338       0.02306467      -0.00000103 </v>
   <v>      -0.00000289      -0.02224463      -0.02224842 </v>
   <v>       0.02306153       0.00000000       0.02306153 </v>
   <v>       0.02306440       0.02306500       0.00000294 </v>
   <v>       0.00000294       0.02306500       0.02306440 </v>
  </varray>
  <varray name="stress" >
   <v>      -7.89300964       0.00000000       0.00003832 </v>
   <v>       0.00000000      -7.89312423       0.00000000 </v>
   <v>       0.00003832       0.00000000      -7.89300964 </v>
  </varray>
  <energy>
   <i name="e_fr_energy">   -114.60320696 </i>
   <i name="e_wo_entrp">   -114.58646885 </i>
   <i name="e_0_energy">     -0.05021432 </i>
  </energy>
  <kpoints>
   <generation param="Monkhorst-Pack">
    <v type="int" name="divisions">       2        2        2 </v>
    <v name="usershift">      0.00000000       0.00000000       0.00000000 </v>
    <v name="genvec1">      0.50000000       0.00000000       0.00000000 </v>
    <v name="genvec2">      0.00000000       0.50000000       0.00000000 </v>
    <v name="genvec3">      0.00000000       0.00000000       0.50000000 </v>
    <v name="shift">      0.50000000       0.50000000       0.50000000 </v>
   </generation>
   <varray name="kpointlist" >
    <v>       0.25000000       0.25000000       0.25000000 </v>
    <v>      -0.25000000       0.25000000       0.25000000 </v>
   </varray>
   <varray name="weights" >
    <v>       0.50000000 </v>
    <v>       0.50000000 </v>
   </varray>
  </kpoints>
  <time name="totalsc">  903.56  349.84</time>
 </calculation>
 <calculation>
  <scstep>
   <time name="diag">    5.51    3.88</time>
   <time name="diis">   42.59   13.12</time>
   <time name="orth">    0.32    0.08</time>
   <time name="total">   52.37   20.98</time>
   <energy>
    <i name="alphaZ">     -6.10292531 </i>
    <i name="ewald">  -2232.15349800 </i>
    <i name="hartreedc">    -19.19544099 </i>
    <i name="XCdc">   -811.44110432 </i>
    <i name="pawpsdc">   1106.77047839 </i>
    <i name="pawaedc">   -116.57143658 </i>
    <i name="eentropy">     -0.05040159 </i>
    <i name="bandstr">    304.47547705 </i>
    <i name="atom">   1659.66634407 </i>
    <i name="e_fr_energy">   -114.60250729 </i>
    <i name="e_wo_entrp">   -114.55210570 </i>
    <i name="e_0_energy">   -114.58570676 </i>
   </energy>
  </scstep>
  <scstep>
   <time name="diag">    5.50    3.83</time>
   <time name="diis">   44.07   13.44</time>
   <time name="orth">    0.32    0.08</time>
   <time name="total">   54.30   21.65</time>
   <energy>
    <i name="e_fr_energy">   -114.60245198 </i>
    <i name="e_wo_entrp">   -114.55207178 </i>
    <i name="e_0_energy">   -114.58565858 </i>
   </energy>
  </scstep>
  <scstep>
   <time name="diag">    5.54    3.89</time>
   <time name="diis">   42.87   13.14</time>
   <time name="orth">    0.32    0.08</time>
   <time name="total">   53.27   21.53</time>
   <energy>
    <i name="e_fr_energy">   -114.60244067 </i>
    <i name="e_wo_entrp">   -114.55206956 </i>
    <i name="e_0_energy">   -114.58565030 </i>
   </energy>
  </scstep>
  <scstep>
   <time name="diag">    5.42    3.80</time>
   <time name="diis">   38.35   11.78</time>
   <time name="orth">    0.33    0.08</time>
   <time name="total">   46.33   17.88</time>
   <energy>
    <i name="alphaZ">     -6.10292531 </i>
    <i name="ewald">  -2232.15349800 </i>
    <i name="hartreedc">    -19.19087162 </i>
    <i name="XCdc">   -811.44111421 </i>
    <i name="pawpsdc">   1106.76937654 </i>
    <i name="pawaedc">   -116.57029447 </i>
    <i name="eentropy">     -0.05037487 </i>
    <i name="bandstr">    304.47091701 </i>
    <i name="atom">   1659.66634407 </i>
    <i name="e_fr_energy">   -114.60244086 </i>
    <i name="e_wo_entrp">   -114.55206599 </i>
    <i name="e_0_energy">   -114.58564923 </i>
   </energy>
  </scstep>
  <structure>
   <crystal>
    <varray name="basis" >
     <v>       8.08705400       0.00000000       0.00000000 </v>
     <v>       0.00000000       8.08705400       0.00000000 </v>
     <v>       0.00000000       0.00000000       8.08705400 </v>
    </varray>
    <i name="volume">    528.89690930 </i>
    <varray name="rec_basis" >
     <v>       0.12365442       0.00000000       0.00000000 </v>
     <v>       0.00000000       0.12365442       0.00000000 </v>
     <v>       0.00000000       0.00000000       0.12365442 </v>
    </varray>
   </crystal>
   <varray name="positions" >
    <v>       0.00000000       0.00000000       0.00000000 </v>
    <v>       0.24945200       0.00000000       0.24945200 </v>
    <v>       0.24945200       0.24945200       0.00000000 </v>
    <v>       0.00000000       0.24945200       0.24945200 </v>
    <v>       0.50000000       0.00000000       0.00000000 </v>
    <v>       0.75054800       0.00000000       0.24945200 </v>
    <v>       0.75054800       0.24945200       0.00000000 </v>
    <v>       0.50000000       0.25322100       0.25322100 </v>
    <v>       0.00000000       0.50000000       0.00000000 </v>
    <v>       0.25507582       0.50000000       0.25322100 </v>
    <v>       0.24945200       0.75054800       0.00000000 </v>
    <v>       0.00000000       0.75054800       0.24945200 </v>
    <v>       0.50000000       0.50000000       0.00000000 </v>
    <v>       0.74677900       0.50000000       0.25322100 </v>
    <v>       0.75054800       0.75054800       0.00000000 </v>
    <v>       0.50000000       0.74677900       0.25322100 </v>
    <v>       0.00000000       0.00000000       0.50000000 </v>
    <v>       0.24945200       0.00000000       0.75054800 </v>
    <v>       0.25322100       0.25322100       0.50000000 </v>
    <v>       0.00000000       0.24945200       0.75054800 </v>
    <v>       0.50000000       0.00000000       0.50000000 </v>
    <v>       0.75054800       0.00000000       0.75054800 </v>
    <v>       0.74677900       0.25322100       0.50000000 </v>
    <v>       0.50000000       0.25322100       0.74677900 </v>
    <v>       0.00000000       0.50000000       0.50000000 </v>
    <v>       0.25322100       0.50000000       0.74677900 </v>
    <v>       0.25322100       0.74677900       0.50000000 </v>
    <v>       0.00000000       0.75054800       0.75054800 </v>
    <v>       0.74677900       0.50000000       0.74677900 </v>
    <v>       0.74677900       0.74677900       0.50000000 </v>
    <v>       0.50000000       0.74677900       0.74677900 </v>
   </varray>
  </structure>
  <varray name="forces" >
   <v>       0.00122287       0.00000000       0.00102139 </v>
   <v>       0.01833919       0.00000000       0.02410182 </v>
   <v>       0.01872694       0.02378952      -0.00060701 </v>
   <v>       0.00945066       0.02929566       0.02327101 </v>
   <v>       0.00140020       0.00000000      -0.00111144 </v>
   <v>      -0.02225845       0.00000000       0.02317102 </v>
   <v>      -0.02336868       0.02289356      -0.00119310 </v>
   <v>       0.01127469      -0.03312781      -0.02246070 </v>
   <v>       0.00855847       0.00000000       0.00477499 </v>
   <v>      -0.07880429       0.00000000      -0.01504499 </v>
   <v>       0.01872694      -0.02378952      -0.00060701 </v>
   <v>       0.00945066      -0.02929566       0.02327101 </v>
   <v>       0.00853124       0.00000000      -0.00710089 </v>
   <v>       0.02593594       0.00000000      -0.02270989 </v>
   <v>      -0.02336868      -0.02289356      -0.00119310 </v>
   <v>       0.01127469       0.03312781      -0.02246070 </v>
   <v>       0.00197994       0.00000000       0.00055868 </v>
   <v>       0.02128563       0.00000000      -0.02203631 </v>
   <v>      -0.02719930      -0.02241099      -0.00132425 </v>
   <v>       0.00066866       0.02343753      -0.02280030 </v>
   <v>       0.00189140       0.00000000      -0.00177319 </v>
   <v>      -0.02238161       0.00000000      -0.02360038 </v>
   <v>       0.02217327      -0.02454961       0.00006866 </v>
   <v>       0.00098992      -0.02244435       0.02454434 </v>
   <v>       0.00980516       0.00000000      -0.00664943 </v>
   <v>      -0.02593812       0.00000000       0.02271761 </v>
   <v>      -0.02719930       0.02241099      -0.00132425 </v>
   <v>       0.00066866      -0.02343753      -0.02280030 </v>
   <v>       0.02500012       0.00000000       0.02468371 </v>
   <v>       0.02217327       0.02454961       0.00006866 </v>
   <v>       0.00098992       0.02244435       0.02454434 </v>
  </varray>
  <varray name="stress" >
   <v>      -8.01280688       0.00000000      -0.11308161 </v>
   <v>       0.00000000      -7.84648428       0.00000000 </v>
   <v>      -0.11308352       0.00000000      -7.84504275 </v>
  </varray>
  <energy>
   <i name="e_fr_energy">   -114.60244086 </i>
   <i name="e_wo_entrp">   -114.58564923 </i>
   <i name="e_0_energy">     -0.05037487 </i>
  </energy>
  <kpoints>
   <generation param="Monkhorst-Pack">
    <v type="int" name="divisions">       2        2        2 </v>
    <v name="usershift">      0.00000000       0.00000000       0.00000000 </v>
    <v name="genvec1">      0.50000000       0.00000000       0.00000000 </v>
    <v name="genvec2">      0.00000000       0.50000000       0.00000000 </v>
    <v name="genvec3">      0.00000000       0.00000000       0.50000000 </v>
    <v name="shift">      0.50000000       0.50000000       0.50000000 </v>
   </generation>
   <varray name="kpointlist" >
    <v>       0.25000000       0.25000000       0.25000000 </v>
    <v>      -0.25000000       0.25000000       0.25000000 </v>
   </varray>
   <varray name="weights" >
    <v>       0.50000000 </v>
    <v>       0.50000000 </v>
   </varray>
  </kpoints>
  <time name="totalsc">  264.53  109.42</time>
 </calculation>
 <calculation>
  <scstep>
   <time name="diag">    5.28    3.59</time>
   <time name="diis">   41.42   12.50</time>
   <time name="orth">    0.33    0.08</time>
   <time name="total">   51.30   20.29</time>
   <energy>
    <i name="alphaZ">     -6.10292531 </i>
    <i name="ewald">  -2231.92403619 </i>
    <i name="hartreedc">    -19.38147499 </i>
    <i name="XCdc">   -811.43680924 </i>
    <i name="pawpsdc">   1106.76916509 </i>
    <i name="pawaedc">   -116.57007519 </i>
    <i name="eentropy">     -0.05006581 </i>
    <i name="bandstr">    304.42647080 </i>
    <i name="atom">   1659.66634407 </i>
    <i name="e_fr_energy">   -114.60340676 </i>
    <i name="e_wo_entrp">   -114.55334096 </i>
    <i name="e_0_energy">   -114.58671816 </i>
   </energy>
  </scstep>
  <scstep>
   <time name="diag">    5.51    3.87</time>
   <time name="diis">   43.38   12.86</time>
   <time name="orth">    0.33    0.08</time>
   <time name="total">   53.77   21.27</time>
   <energy>
    <i name="e_fr_energy">   -114.60317659 </i>
    <i name="e_wo_entrp">   -114.55308695 </i>
    <i name="e_0_energy">   -114.58648004 </i>
   </energy>
  </scstep>
  <scstep>
   <time name="diag">    5.49    3.84</time>
   <time name="diis">   41.93   12.58</time>
   <time name="orth">    0.33    0.08</time>
   <time name="total">   52.28   20.93</time>
   <energy>
    <i name="e_fr_energy">   -114.60312971 </i>
    <i name="e_wo_entrp">   -114.55303766 </i>
    <i name="e_0_energy">   -114.58643236 </i>
   </energy>
  </scstep>
  <scstep>
   <time name="diag">    5.65    4.03</time>
   <time name="diis">   44.96   13.29</time>
   <time name="orth">    0.33    0.08</time>
   <time name="total">   56.01   22.33</time>
   <energy>
    <i name="e_fr_energy">   -114.60313020 </i>
    <i name="e_wo_entrp">   -114.55304244 </i>
    <i name="e_0_energy">   -114.58643428 </i>
   </energy>
  </scstep>
  <scstep>
   <time name="diag">    5.47    3.81</time>
   <time name="diis">   32.04    9.75</time>
   <time name="orth">    0.33    0.08</time>
   <time name="total">   40.21   15.99</time>
   <energy>
    <i name="alphaZ">     -6.10292531 </i>
    <i name="ewald">  -2231.92403619 </i>
    <i name="hartreedc">    -19.39294816 </i>
    <i name="XCdc">   -811.43686479 </i>
    <i name="pawpsdc">   1106.76925459 </i>
    <i name="pawaedc">   -116.57021035 </i>
    <i name="eentropy">     -0.05009028 </i>
    <i name="bandstr">    304.43834601 </i>
    <i name="atom">   1659.66634407 </i>
    <i name="e_fr_energy">   -114.60313040 </i>
    <i name="e_wo_entrp">   -114.55304013 </i>
    <i name="e_0_energy">   -114.58643364 </i>
   </energy>
  </scstep>
  <structure>
   <crystal>
    <varray name="basis" >
     <v>       8.08705400       0.00000000       0.00000000 </v>
     <v>       0.00000000       8.08705400       0.00000000 </v>
     <v>       0.00000000       0.00000000       8.08705400 </v>
    </varray>
    <i name="volume">    528.89690930 </i>
    <varray name="rec_basis" >
     <v>       0.12365442       0.00000000       0.00000000 </v>
     <v>       0.00000000       0.12365442       0.00000000 </v>
     <v>       0.00000000       0.00000000       0.12365442 </v>
    </varray>
   </crystal>
   <varray name="positions" >
    <v>       0.00000000       0.00000000       0.00000000 </v>
    <v>       0.24945200       0.00000000       0.24945200 </v>
    <v>       0.24945200       0.24945200       0.00000000 </v>
    <v>       0.00000000       0.24945200       0.24945200 </v>
    <v>       0.50000000       0.00000000       0.00000000 </v>
    <v>       0.75054800       0.00000000       0.24945200 </v>
    <v>       0.75054800       0.24945200       0.00000000 </v>
    <v>       0.50000000       0.25322100       0.25322100 </v>
    <v>       0.00000000       0.50000000       0.00000000 </v>
    <v>       0.25136618       0.50000000       0.25322100 </v>
    <v>       0.24945200       0.75054800       0.00000000 </v>
    <v>       0.00000000       0.75054800       0.24945200 </v>
    <v>       0.50000000       0.50000000       0.00000000 </v>
    <v>       0.74677900       0.50000000       0.25322100 </v>
    <v>       0.75054800       0.75054800       0.00000000 </v>
    <v>       0.50000000       0.74677900       0.25322100 </v>
    <v>       0.00000000       0.00000000       0.50000000 </v>
    <v>       0.24945200       0.00000000       0.75054800 </v>
    <v>       0.25322100       0.25322100       0.50000000 </v>
    <v>       0.00000000       0.24945200       0.75054800 </v>
    <v>       0.50000000       0.00000000       0.50000000 </v>
    <v>       0.75054800       0.00000000       0.75054800 </v>
    <v>       0.74677900       0.25322100       0.50000000 </v>
    <v>       0.50000000       0.25322100       0.74677900 </v>
    <v>       0.00000000       0.50000000       0.50000000 </v>
    <v>       0.25322100       0.50000000       0.74677900 </v>
    <v>       0.25322100       0.74677900       0.50000000 </v>
    <v>       0.00000000       0.75054800       0.75054800 </v>
    <v>       0.74677900       0.50000000       0.74677900 </v>
    <v>       0.74677900       0.74677900       0.50000000 </v>
    <v>       0.50000000       0.74677900       0.74677900 </v>
   </varray>
  </structure>
  <varray name="forces" >
   <v>      -0.00116553       0.00000000      -0.00104451 </v>
   <v>       0.02615434       0.00000000       0.02045246 </v>
   <v>       0.02579807       0.02083144       0.00067971 </v>
   <v>      -0.00983752       0.01462900       0.02125147 </v>
   <v>      -0.00133959       0.00000000       0.00104099 </v>
   <v>      -0.02228023       0.00000000       0.02136664 </v>
   <v>      -0.02113904       0.02163149       0.00115285 </v>
   <v>      -0.01104308      -0.01332843      -0.02363239 </v>
   <v>      -0.00899370       0.00000000      -0.00542189 </v>
   <v>       0.03363573       0.00000000      -0.03067668 </v>
   <v>       0.02579807      -0.02083144       0.00067971 </v>
   <v>      -0.00983752      -0.01462900       0.02125147 </v>
   <v>      -0.00838252       0.00000000       0.00687043 </v>
   <v>       0.02000266       0.00000000      -0.02337361 </v>
   <v>      -0.02113904      -0.02163149       0.00115285 </v>
   <v>      -0.01104308       0.01332843      -0.02363239 </v>
   <v>      -0.00197673       0.00000000      -0.00045409 </v>
   <v>       0.02314109       0.00000000      -0.02246559 </v>
   <v>      -0.01889102      -0.02357169       0.00119588 </v>
   <v>      -0.00068163       0.02102524      -0.02173695 </v>
   <v>      -0.00179717       0.00000000       0.00167615 </v>
   <v>      -0.02205012       0.00000000      -0.02098060 </v>
   <v>       0.02390198      -0.02158145      -0.00002483 </v>
   <v>      -0.00092017      -0.02354400       0.02157502 </v>
   <v>      -0.01026538       0.00000000       0.00728295 </v>
   <v>      -0.02010298       0.00000000       0.02337258 </v>
   <v>      -0.01889102       0.02357169       0.00119588 </v>
   <v>      -0.00068163      -0.02102524      -0.02173695 </v>
   <v>       0.02104499       0.00000000       0.02143326 </v>
   <v>       0.02390198       0.02158145      -0.00002483 </v>
   <v>      -0.00092017       0.02354400       0.02157502 </v>
  </varray>
  <varray name="stress" >
   <v>      -7.76786656       0.00000000       0.11308882 </v>
   <v>       0.00000000      -7.93787523       0.00000000 </v>
   <v>       0.11308771       0.00000000      -7.93594720 </v>
  </varray>
  <energy>
   <i name="e_fr_energy">   -114.60313040 </i>
   <i name="e_wo_entrp">   -114.58643364 </i>
   <i name="e_0_energy">     -0.05009028 </i>
  </energy>
  <kpoints>
   <generation param="Monkhorst-Pack">
    <v type="int" name="divisions">       2        2        2 </v>
    <v name="usershift">      0.00000000       0.00000000       0.00000000 </v>
    <v name="genvec1">      0.50000000       0.00000000       0.00000000 </v>
    <v name="genvec2">      0.00000000       0.50000000       0.00000000 </v>
    <v name="genvec3">      0.00000000       0.00000000       0.50000000 </v>
    <v name="shift">      0.50000000       0.50000000       0.50000000 </v>
   </generation>
   <varray name="kpointlist" >
    <v>       0.25000000       0.25000000       0.25000000 </v>
    <v>      -0.25000000       0.25000000       0.25000000 </v>
    <v>       0.25000000      -0.25000000       0.25000000 </v>
   </varray>
   <varray name="weights" >
    <v>       0.25000000 </v>
    <v>       0.50000000 </v>
    <v>       0.25000000 </v>
   </varray>
  </kpoints>
  <time name="totalsc">  313.09  128.60</time>
 </calculation>
 <calculation>
  <scstep>
   <time name="diag">    8.02    5.39</time>
   <time name="diis">   62.25   18.70</time>
   <time name="orth">    0.50    0.13</time>
   <time name="total">   75.94   29.19</time>
   <energy>
    <i name="alphaZ">     -6.10292531 </i>
    <i name="ewald">  -2232.03776777 </i>
    <i name="hartreedc">    -19.29693538 </i>
    <i name="XCdc">   -811.43901534 </i>
    <i name="pawpsdc">   1106.76940132 </i>
    <i name="pawaedc">   -116.57036003 </i>
    <i name="eentropy">     -0.05018277 </i>
    <i name="bandstr">    304.45859348 </i>
    <i name="atom">   1659.66634407 </i>
    <i name="e_fr_energy">   -114.60284773 </i>
    <i name="e_wo_entrp">   -114.55266496 </i>
    <i name="e_0_energy">   -114.58612014 </i>
   </energy>
  </scstep>
  <scstep>
   <time name="diag">    8.26    5.66</time>
   <time name="diis">   65.35   19.21</time>
   <time name="orth">    0.50    0.13</time>
   <time name="total">   79.42   30.20</time>
   <energy>
    <i name="e_fr_energy">   -114.60274673 </i>
    <i name="e_wo_entrp">   -114.55255874 </i>
    <i name="e_0_energy">   -114.58601740 </i>
   </energy>
  </scstep>
  <scstep>
   <time name="diag">    8.35    5.76</time>
   <time name="diis">   64.28   19.17</time>
   <time name="orth">    0.50    0.13</time>
   <time name="total">   78.74   30.54</time>
   <energy>
    <i name="e_fr_energy">   -114.60270693 </i>
    <i name="e_wo_entrp">   -114.55251770 </i>
    <i name="e_0_energy">   -114.58597718 </i>
   </energy>
  </scstep>
  <scstep>
   <time name="diag">    8.24    5.64</time>
   <time name="diis">   64.28   19.00</time>
   <time name="orth">    0.50    0.13</time>
   <time name="total">   78.35   29.95</time>
   <energy>
    <i name="e_fr_energy">   -114.60269827 </i>
    <i name="e_wo_entrp">   -114.55250619 </i>
    <i name="e_0_energy">   -114.58596758 </i>
   </energy>
  </scstep>
  <scstep>
   <time name="diag">    8.02    5.40</time>
   <time name="diis">   59.40   17.71</time>
   <time name="orth">    0.50    0.13</time>
   <time name="total">   73.21   28.30</time>
   <energy>
    <i name="e_fr_energy">   -114.60269391 </i>
    <i name="e_wo_entrp">   -114.55250243 </i>
    <i name="e_0_energy">   -114.58596342 </i>
   </energy>
  </scstep>
  <scstep>
   <time name="diag">    8.01    5.39</time>
   <time name="diis">   44.41   13.71</time>
   <time name="orth">    0.50    0.13</time>
   <time name="total">   58.25   24.28</time>
   <energy>
    <i name="e_fr_energy">   -114.60269247 </i>
    <i name="e_wo_entrp">   -114.55250028 </i>
    <i name="e_0_energy">   -114.58596174 </i>
   </energy>
  </scstep>
  <scstep>
   <time name="diag">    8.02    5.39</time>
   <time name="diis">   35.66   11.40</time>
   <time name="orth">    0.50    0.13</time>
   <time name="total">   46.52   19.12</time>
   <energy>
    <i name="alphaZ">     -6.10292531 </i>
    <i name="ewald">  -2232.03776777 </i>
    <i name="hartreedc">    -19.29252485 </i>
    <i name="XCdc">   -811.43895996 </i>
    <i name="pawpsdc">   1106.76941013 </i>
    <i name="pawaedc">   -116.57035085 </i>
    <i name="eentropy">     -0.05019288 </i>
    <i name="bandstr">    304.45427555 </i>
    <i name="atom">   1659.66634407 </i>
    <i name="e_fr_energy">   -114.60269188 </i>
    <i name="e_wo_entrp">   -114.55249899 </i>
    <i name="e_0_energy">   -114.58596091 </i>
   </energy>
  </scstep>
  <structure>
   <crystal>
    <varray name="basis" >
     <v>       8.08705400       0.00000000       0.00000000 </v>
     <v>       0.00000000       8.08705400       0.00000000 </v>
     <v>       0.00000000       0.00000000       8.08705400 </v>
    </varray>
    <i name="volume">    528.89690930 </i>
    <varray name="rec_basis" >
     <v>       0.12365442       0.00000000       0.00000000 </v>
     <v>       0.00000000       0.12365442       0.00000000 </v>
     <v>       0.00000000       0.00000000       0.12365442 </v>
    </varray>
   </crystal>
   <varray name="positions" >
    <v>       0.00000000       0.00000000       0.00000000 </v>
    <v>       0.24945200       0.00000000       0.24945200 </v>
    <v>       0.24945200       0.24945200       0.00000000 </v>
    <v>       0.00000000       0.24945200       0.24945200 </v>
    <v>       0.50000000       0.00000000       0.00000000 </v>
    <v>       0.75054800       0.00000000       0.24945200 </v>
    <v>       0.75054800       0.24945200       0.00000000 </v>
    <v>       0.50000000       0.25322100       0.25322100 </v>
    <v>       0.00000000       0.50000000       0.00000000 </v>
    <v>       0.25322100       0.50185482       0.25322100 </v>
    <v>       0.24945200       0.75054800       0.00000000 </v>
    <v>       0.00000000       0.75054800       0.24945200 </v>
    <v>       0.50000000       0.50000000       0.00000000 </v>
    <v>       0.74677900       0.50000000       0.25322100 </v>
    <v>       0.75054800       0.75054800       0.00000000 </v>
    <v>       0.50000000       0.74677900       0.25322100 </v>
    <v>       0.00000000       0.00000000       0.50000000 </v>
    <v>       0.24945200       0.00000000       0.75054800 </v>
    <v>       0.25322100       0.25322100       0.50000000 </v>
    <v>       0.00000000       0.24945200       0.75054800 </v>
    <v>       0.50000000       0.00000000       0.50000000 </v>
    <v>       0.75054800       0.00000000       0.75054800 </v>
    <v>       0.74677900       0.25322100       0.50000000 </v>
    <v>       0.50000000       0.25322100       0.74677900 </v>
    <v>       0.00000000       0.50000000       0.50000000 </v>
    <v>       0.25322100       0.50000000       0.74677900 </v>
    <v>       0.25322100       0.74677900       0.50000000 </v>
    <v>       0.00000000       0.75054800       0.75054800 </v>
    <v>       0.74677900       0.50000000       0.74677900 </v>
    <v>       0.74677900       0.74677900       0.50000000 </v>
    <v>       0.50000000       0.74677900       0.74677900 </v>
   </varray>
  </structure>
  <varray name="forces" >
   <v>      -0.00000463      -0.00220280      -0.00000463 </v>
   <v>       0.02225681       0.00190289       0.02225681 </v>
   <v>       0.02196113       0.03132741       0.00688441 </v>
   <v>       0.00688441       0.03132741       0.02196113 </v>
   <v>       0.00001385      -0.00090571      -0.00000832 </v>
   <v>      -0.02227519       0.00038741       0.02224086 </v>
   <v>      -0.02260839       0.02414846      -0.00078859 </v>
   <v>      -0.00867753      -0.01208998      -0.02431350 </v>
   <v>      -0.00002159      -0.00526766      -0.00002159 </v>
   <v>      -0.02318407      -0.06867507      -0.02318407 </v>
   <v>       0.02254338      -0.01288470      -0.00727558 </v>
   <v>      -0.00727558      -0.01288470       0.02254338 </v>
   <v>      -0.00001667      -0.00479256       0.00004418 </v>
   <v>       0.02304327      -0.00325128      -0.02305587 </v>
   <v>      -0.02190421      -0.02036300       0.00076830 </v>
   <v>       0.00920363       0.03434993      -0.02178371 </v>
   <v>      -0.00000832      -0.00090571       0.00001385 </v>
   <v>       0.02224086       0.00038741      -0.02227519 </v>
   <v>      -0.02431350      -0.01208998      -0.00867753 </v>
   <v>      -0.00078859       0.02414846      -0.02260839 </v>
   <v>       0.00000408       0.00024037       0.00000408 </v>
   <v>      -0.02224819       0.00122219      -0.02224819 </v>
   <v>       0.02300670      -0.02209702       0.00084749 </v>
   <v>       0.00084749      -0.02209702       0.02300670 </v>
   <v>       0.00004418      -0.00479256      -0.00001667 </v>
   <v>      -0.02305587      -0.00325128       0.02304327 </v>
   <v>      -0.02178371       0.03434993       0.00920363 </v>
   <v>       0.00076830      -0.02036300      -0.02190421 </v>
   <v>       0.02304923      -0.00289345       0.02304923 </v>
   <v>       0.02308108       0.02400781      -0.00078233 </v>
   <v>      -0.00078233       0.02400781       0.02308108 </v>
  </varray>
  <varray name="stress" >
   <v>      -7.89143694       0.30687083       0.00075624 </v>
   <v>       0.30687588      -7.88736830       0.30687588 </v>
   <v>       0.00075624       0.30687083      -7.89143694 </v>
  </varray>
  <energy>
   <i name="e_fr_energy">   -114.60269188 </i>
   <i name="e_wo_entrp">   -114.58596091 </i>
   <i name="e_0_energy">     -0.05019288 </i>
  </energy>
  <kpoints>
   <generation param="Monkhorst-Pack">
    <v type="int" name="divisions">       2        2        2 </v>
    <v name="usershift">      0.00000000       0.00000000       0.00000000 </v>
    <v name="genvec1">      0.50000000       0.00000000       0.00000000 </v>
    <v name="genvec2">      0.00000000       0.50000000       0.00000000 </v>
    <v name="genvec3">      0.00000000       0.00000000       0.50000000 </v>
    <v name="shift">      0.50000000       0.50000000       0.50000000 </v>
   </generation>
   <varray name="kpointlist" >
    <v>       0.25000000       0.25000000       0.25000000 </v>
    <v>      -0.25000000       0.25000000       0.25000000 </v>
    <v>       0.25000000      -0.25000000       0.25000000 </v>
   </varray>
   <varray name="weights" >
    <v>       0.25000000 </v>
    <v>       0.50000000 </v>
    <v>       0.25000000 </v>
   </varray>
  </kpoints>
  <time name="totalsc">  568.46  226.24</time>
 </calculation>
 <calculation>
  <scstep>
   <time name="diag">    8.01    5.38</time>
   <time name="diis">   61.17   18.12</time>
   <time name="orth">    0.50    0.13</time>
   <time name="total">   74.86   28.61</time>
   <energy>
    <i name="alphaZ">     -6.10292531 </i>
    <i name="ewald">  -2232.03776777 </i>
    <i name="hartreedc">    -19.29139936 </i>
    <i name="XCdc">   -811.43898865 </i>
    <i name="pawpsdc">   1106.76942161 </i>
    <i name="pawaedc">   -116.57036281 </i>
    <i name="eentropy">     -0.05013976 </i>
    <i name="bandstr">    304.45275015 </i>
    <i name="atom">   1659.66634407 </i>
    <i name="e_fr_energy">   -114.60306782 </i>
    <i name="e_wo_entrp">   -114.55292806 </i>
    <i name="e_0_energy">   -114.58635457 </i>
   </energy>
  </scstep>
  <scstep>
   <time name="diag">    8.25    5.70</time>
   <time name="diis">   62.57   18.32</time>
   <time name="orth">    0.50    0.13</time>
   <time name="total">   76.83   29.56</time>
   <energy>
    <i name="e_fr_energy">   -114.60273612 </i>
    <i name="e_wo_entrp">   -114.55255028 </i>
    <i name="e_0_energy">   -114.58600751 </i>
   </energy>
  </scstep>
  <scstep>
   <time name="diag">    8.17    5.61</time>
   <time name="diis">   62.73   18.51</time>
   <time name="orth">    0.50    0.13</time>
   <time name="total">   76.70   29.44</time>
   <energy>
    <i name="e_fr_energy">   -114.60269151 </i>
    <i name="e_wo_entrp">   -114.55249741 </i>
    <i name="e_0_energy">   -114.58596014 </i>
   </energy>
  </scstep>
  <scstep>
   <time name="diag">    8.31    5.71</time>
   <time name="diis">   64.46   18.76</time>
   <time name="orth">    0.50    0.13</time>
   <time name="total">   78.85   30.04</time>
   <energy>
    <i name="e_fr_energy">   -114.60269159 </i>
    <i name="e_wo_entrp">   -114.55249955 </i>
    <i name="e_0_energy">   -114.58596091 </i>
   </energy>
  </scstep>
  <scstep>
   <time name="diag">    8.00    5.38</time>
   <time name="diis">   46.08   13.95</time>
   <time name="orth">    0.50    0.13</time>
   <time name="total">   56.85   21.63</time>
   <energy>
    <i name="alphaZ">     -6.10292531 </i>
    <i name="ewald">  -2232.03776777 </i>
    <i name="hartreedc">    -19.29251260 </i>
    <i name="XCdc">   -811.43895972 </i>
    <i name="pawpsdc">   1106.76932127 </i>
    <i name="pawaedc">   -116.57026306 </i>
    <i name="eentropy">     -0.05019330 </i>
    <i name="bandstr">    304.45426448 </i>
    <i name="atom">   1659.66634407 </i>
    <i name="e_fr_energy">   -114.60269193 </i>
    <i name="e_wo_entrp">   -114.55249863 </i>
    <i name="e_0_energy">   -114.58596083 </i>
   </energy>
  </scstep>
  <structure>
   <crystal>
    <varray name="basis" >
     <v>       8.08705400       0.00000000       0.00000000 </v>
     <v>       0.00000000       8.08705400       0.00000000 </v>
     <v>       0.00000000       0.00000000       8.08705400 </v>
    </varray>
    <i name="volume">    528.89690930 </i>
    <varray name="rec_basis" >
     <v>       0.12365442       0.00000000       0.00000000 </v>
     <v>       0.00000000       0.12365442       0.00000000 </v>
     <v>       0.00000000       0.00000000       0.12365442 </v>
    </varray>
   </crystal>
   <varray name="positions" >
    <v>       0.00000000       0.00000000       0.00000000 </v>
    <v>       0.24945200       0.00000000       0.24945200 </v>
    <v>       0.24945200       0.24945200       0.00000000 </v>
    <v>       0.00000000       0.24945200       0.24945200 </v>
    <v>       0.50000000       0.00000000       0.00000000 </v>
    <v>       0.75054800       0.00000000       0.24945200 </v>
    <v>       0.75054800       0.24945200       0.00000000 </v>
    <v>       0.50000000       0.25322100       0.25322100 </v>
    <v>       0.00000000       0.50000000       0.00000000 </v>
    <v>       0.25322100       0.49814518       0.25322100 </v>
    <v>       0.24945200       0.75054800       0.00000000 </v>
    <v>       0.00000000       0.75054800       0.24945200 </v>
    <v>       0.50000000       0.50000000       0.00000000 </v>
    <v>       0.74677900       0.50000000       0.25322100 </v>
    <v>       0.75054800       0.75054800       0.00000000 </v>
    <v>       0.50000000       0.74677900       0.25322100 </v>
    <v>       0.00000000       0.00000000       0.50000000 </v>
    <v>       0.24945200       0.00000000       0.75054800 </v>
    <v>       0.25322100       0.25322100       0.50000000 </v>
    <v>       0.00000000       0.24945200       0.75054800 </v>
    <v>       0.50000000       0.00000000       0.50000000 </v>
    <v>       0.75054800       0.00000000       0.75054800 </v>
    <v>       0.74677900       0.25322100       0.50000000 </v>
    <v>       0.50000000       0.25322100       0.74677900 </v>
    <v>       0.00000000       0.50000000       0.50000000 </v>
    <v>       0.25322100       0.50000000       0.74677900 </v>
    <v>       0.25322100       0.74677900       0.50000000 </v>
    <v>       0.00000000       0.75054800       0.75054800 </v>
    <v>       0.74677900       0.50000000       0.74677900 </v>
    <v>       0.74677900       0.74677900       0.50000000 </v>
    <v>       0.50000000       0.74677900       0.74677900 </v>
   </varray>
  </structure>
  <varray name="forces" >
   <v>      -0.00001011       0.00218596      -0.00001011 </v>
   <v>       0.02226177      -0.00200820       0.02226177 </v>
   <v>       0.02252378       0.01282368      -0.00742732 </v>
   <v>      -0.00742732       0.01282368       0.02252378 </v>
   <v>       0.00000995       0.00089681      -0.00000954 </v>
   <v>      -0.02227628      -0.00039477       0.02224702 </v>
   <v>      -0.02189402       0.02041935       0.00075122 </v>
   <v>       0.00936869      -0.03445181      -0.02178338 </v>
   <v>      -0.00002615       0.00522555      -0.00002615 </v>
   <v>      -0.02317350       0.06924843      -0.02317350 </v>
   <v>       0.02198237      -0.03139136       0.00701903 </v>
   <v>       0.00701903      -0.03139136       0.02198237 </v>
   <v>      -0.00001355       0.00481017       0.00003463 </v>
   <v>       0.02304340       0.00322991      -0.02305153 </v>
   <v>      -0.02261196      -0.02409243      -0.00078893 </v>
   <v>      -0.00883825       0.01200262      -0.02429144 </v>
   <v>      -0.00000954       0.00089681       0.00000995 </v>
   <v>       0.02224702      -0.00039477      -0.02227628 </v>
   <v>      -0.02178338      -0.03445181       0.00936869 </v>
   <v>       0.00075122       0.02041935      -0.02189402 </v>
   <v>       0.00000440      -0.00021777       0.00000440 </v>
   <v>      -0.02224844      -0.00123968      -0.02224844 </v>
   <v>       0.02308021      -0.02398389      -0.00074553 </v>
   <v>      -0.00074553      -0.02398389       0.02308021 </v>
   <v>       0.00003463       0.00481017      -0.00001355 </v>
   <v>      -0.02305153       0.00322991       0.02304340 </v>
   <v>      -0.02429144       0.01200262      -0.00883825 </v>
   <v>      -0.00078893      -0.02409243      -0.02261196 </v>
   <v>       0.02304792       0.00283538       0.02304792 </v>
   <v>       0.02299593       0.02211688       0.00081962 </v>
   <v>       0.00081962       0.02211688       0.02299593 </v>
  </varray>
  <varray name="stress" >
   <v>      -7.89159984      -0.30384882       0.00078897 </v>
   <v>      -0.30384205      -7.88737278      -0.30384205 </v>
   <v>       0.00078897      -0.30384882      -7.89159984 </v>
  </varray>
  <energy>
   <i name="e_fr_energy">   -114.60269193 </i>
   <i name="e_wo_entrp">   -114.58596083 </i>
   <i name="e_0_energy">     -0.05019330 </i>
  </energy>
  <kpoints>
   <generation param="Monkhorst-Pack">
    <v type="int" name="divisions">       2        2        2 </v>
    <v name="usershift">      0.00000000       0.00000000       0.00000000 </v>
    <v name="genvec1">      0.50000000       0.00000000       0.00000000 </v>
    <v name="genvec2">      0.00000000       0.50000000       0.00000000 </v>
    <v name="genvec3">      0.00000000       0.00000000       0.50000000 </v>
    <v name="shift">      0.50000000       0.50000000       0.50000000 </v>
   </generation>
   <varray name="kpointlist" >
    <v>       0.25000000       0.25000000       0.25000000 </v>
    <v>      -0.25000000       0.25000000       0.25000000 </v>
   </varray>
   <varray name="weights" >
    <v>       0.50000000 </v>
    <v>       0.50000000 </v>
   </varray>
  </kpoints>
  <time name="totalsc">  440.19  173.95</time>
 </calculation>
 <calculation>
  <scstep>
   <time name="diag">    5.25    3.57</time>
   <time name="diis">   41.56   12.59</time>
   <time name="orth">    0.33    0.08</time>
   <time name="total">   51.36   20.28</time>
   <energy>
    <i name="alphaZ">     -6.10292531 </i>
    <i name="ewald">  -2232.15349800 </i>
    <i name="hartreedc">    -19.19542300 </i>
    <i name="XCdc">   -811.44114051 </i>
    <i name="pawpsdc">   1106.76936549 </i>
    <i name="pawaedc">   -116.57030665 </i>
    <i name="eentropy">     -0.05057776 </i>
    <i name="bandstr">    304.47404019 </i>
    <i name="atom">   1659.66634407 </i>
    <i name="e_fr_energy">   -114.60412148 </i>
    <i name="e_wo_entrp">   -114.55354372 </i>
    <i name="e_0_energy">   -114.58726223 </i>
   </energy>
  </scstep>
  <scstep>
   <time name="diag">    5.50    3.87</time>
   <time name="diis">   43.71   13.00</time>
   <time name="orth">    0.33    0.08</time>
   <time name="total">   54.07   21.38</time>
   <energy>
    <i name="e_fr_energy">   -114.60369024 </i>
    <i name="e_wo_entrp">   -114.55317090 </i>
    <i name="e_0_energy">   -114.58685046 </i>
   </energy>
  </scstep>
  <scstep>
   <time name="diag">    5.44    3.82</time>
   <time name="diis">   42.60   12.80</time>
   <time name="orth">    0.33    0.08</time>
   <time name="total">   52.76   20.99</time>
   <energy>
    <i name="e_fr_energy">   -114.60314955 </i>
    <i name="e_wo_entrp">   -114.55269956 </i>
    <i name="e_0_energy">   -114.58633289 </i>
   </energy>
  </scstep>
  <scstep>
   <time name="diag">    5.51    3.85</time>
   <time name="diis">   43.37   12.85</time>
   <time name="orth">    0.33    0.08</time>
   <time name="total">   53.68   21.12</time>
   <energy>
    <i name="e_fr_energy">   -114.60293451 </i>
    <i name="e_wo_entrp">   -114.55250244 </i>
    <i name="e_0_energy">   -114.58612382 </i>
   </energy>
  </scstep>
  <scstep>
   <time name="diag">    5.25    3.57</time>
   <time name="diis">   41.88   12.46</time>
   <time name="orth">    0.33    0.08</time>
   <time name="total">   51.83   20.27</time>
   <energy>
    <i name="e_fr_energy">   -114.60267586 </i>
    <i name="e_wo_entrp">   -114.55227502 </i>
    <i name="e_0_energy">   -114.58587558 </i>
   </energy>
  </scstep>
  <scstep>
   <time name="diag">    5.25    3.58</time>
   <time name="diis">   35.06   10.63</time>
   <time name="orth">    0.33    0.08</time>
   <time name="total">   45.06   18.44</time>
   <energy>
    <i name="e_fr_energy">   -114.60255180 </i>
    <i name="e_wo_entrp">   -114.55216574 </i>
    <i name="e_0_energy">   -114.58575645 </i>
   </energy>
  </scstep>
  <scstep>
   <time name="diag">    5.27    3.58</time>
   <time name="diis">   27.87    8.66</time>
   <time name="orth">    0.33    0.08</time>
   <time name="total">   37.98   16.55</time>
   <energy>
    <i name="e_fr_energy">   -114.60247816 </i>
    <i name="e_wo_entrp">   -114.55210036 </i>
    <i name="e_0_energy">   -114.58568556 </i>
   </energy>
  </scstep>
  <scstep>
   <time name="diag">    5.25    3.57</time>
   <time name="diis">   23.75    7.52</time>
   <time name="orth">    0.33    0.08</time>
   <time name="total">   33.75   15.34</time>
   <energy>
    <i name="e_fr_energy">   -114.60244247 </i>
    <i name="e_wo_entrp">   -114.55206948 </i>
    <i name="e_0_energy">   -114.58565147 </i>
   </energy>
  </scstep>
  <scstep>
   <time name="diag">    5.24    3.57</time>
   <time name="diis">   22.67    6.95</time>
   <time name="orth">    0.33    0.08</time>
   <time name="total">   32.69   14.78</time>
   <energy>
    <i name="e_fr_energy">   -114.60243586 </i>
    <i name="e_wo_entrp">   -114.55206372 </i>
    <i name="e_0_energy">   -114.58564515 </i>
   </energy>
  </scstep>
  <scstep>
   <time name="diag">    5.24    3.57</time>
   <time name="diis">   21.84    6.51</time>
   <time name="orth">    0.33    0.08</time>
   <time name="total">   29.72   12.35</time>
   <energy>
    <i name="alphaZ">     -6.10292531 </i>
    <i name="ewald">  -2232.15349800 </i>
    <i name="hartreedc">    -19.19079883 </i>
    <i name="XCdc">   -811.44111317 </i>
    <i name="pawpsdc">   1106.76907083 </i>
    <i name="pawaedc">   -116.56997790 </i>
    <i name="eentropy">     -0.05037231 </i>
    <i name="bandstr">    304.47083399 </i>
    <i name="atom">   1659.66634407 </i>
    <i name="e_fr_energy">   -114.60243663 </i>
    <i name="e_wo_entrp">   -114.55206432 </i>
    <i name="e_0_energy">   -114.58564586 </i>
   </energy>
  </scstep>
  <structure>
   <crystal>
    <varray name="basis" >
     <v>       8.08705400       0.00000000       0.00000000 </v>
     <v>       0.00000000       8.08705400       0.00000000 </v>
     <v>       0.00000000       0.00000000       8.08705400 </v>
    </varray>
    <i name="volume">    528.89690930 </i>
    <varray name="rec_basis" >
     <v>       0.12365442       0.00000000       0.00000000 </v>
     <v>       0.00000000       0.12365442       0.00000000 </v>
     <v>       0.00000000       0.00000000       0.12365442 </v>
    </varray>
   </crystal>
   <varray name="positions" >
    <v>       0.00000000       0.00000000       0.00000000 </v>
    <v>       0.24945200       0.00000000       0.24945200 </v>
    <v>       0.24945200       0.24945200       0.00000000 </v>
    <v>       0.00000000       0.24945200       0.24945200 </v>
    <v>       0.50000000       0.00000000       0.00000000 </v>
    <v>       0.75054800       0.00000000       0.24945200 </v>
    <v>       0.75054800       0.24945200       0.00000000 </v>
    <v>       0.50000000       0.25322100       0.25322100 </v>
    <v>       0.00000000       0.50000000       0.00000000 </v>
    <v>       0.25322100       0.50000000       0.25507582 </v>
    <v>       0.24945200       0.75054800       0.00000000 </v>
    <v>       0.00000000       0.75054800       0.24945200 </v>
    <v>       0.50000000       0.50000000       0.00000000 </v>
    <v>       0.74677900       0.50000000       0.25322100 </v>
    <v>       0.75054800       0.75054800       0.00000000 </v>
    <v>       0.50000000       0.74677900       0.25322100 </v>
    <v>       0.00000000       0.00000000       0.50000000 </v>
    <v>       0.24945200       0.00000000       0.75054800 </v>
    <v>       0.25322100       0.25322100       0.50000000 </v>
    <v>       0.00000000       0.24945200       0.75054800 </v>
    <v>       0.50000000       0.00000000       0.50000000 </v>
    <v>       0.75054800       0.00000000       0.75054800 </v>
    <v>       0.74677900       0.25322100       0.50000000 </v>
    <v>       0.50000000       0.25322100       0.74677900 </v>
    <v>       0.00000000       0.50000000       0.50000000 </v>
    <v>       0.25322100       0.50000000       0.74677900 </v>
    <v>       0.25322100       0.74677900       0.50000000 </v>
    <v>       0.00000000       0.75054800       0.75054800 </v>
    <v>       0.74677900       0.50000000       0.74677900 </v>
    <v>       0.74677900       0.74677900       0.50000000 </v>
    <v>       0.50000000       0.74677900       0.74677900 </v>
   </varray>
  </structure>
  <varray name="forces" >
   <v>       0.00103530       0.00000000       0.00122637 </v>
   <v>       0.02406955       0.00000000       0.01831068 </v>
   <v>       0.02326360       0.02938330       0.00949084 </v>
   <v>      -0.00059303       0.02374831       0.01868191 </v>
   <v>       0.00051960       0.00000000       0.00196581 </v>
   <v>      -0.02201993       0.00000000       0.02135475 </v>
   <v>      -0.02277675       0.02344570       0.00065777 </v>
   <v>      -0.00131415      -0.02237524      -0.02720749 </v>
   <v>       0.00488627       0.00000000       0.00857559 </v>
   <v>      -0.01498532       0.00000000      -0.07901413 </v>
   <v>       0.02326360      -0.02938330       0.00949084 </v>
   <v>      -0.00059303      -0.02374831       0.01868191 </v>
   <v>      -0.00676605       0.00000000       0.00982680 </v>
   <v>       0.02267507       0.00000000      -0.02597719 </v>
   <v>      -0.02277675      -0.02344570       0.00065777 </v>
   <v>      -0.00131415       0.02237524      -0.02720749 </v>
   <v>      -0.00115814       0.00000000       0.00139903 </v>
   <v>       0.02314116       0.00000000      -0.02220043 </v>
   <v>      -0.02242670      -0.03320523       0.01130393 </v>
   <v>      -0.00118708       0.02286952      -0.02335553 </v>
   <v>      -0.00170936       0.00000000       0.00189031 </v>
   <v>      -0.02356655       0.00000000      -0.02247723 </v>
   <v>       0.02451556      -0.02251039       0.00098045 </v>
   <v>       0.00007308      -0.02452553       0.02217424 </v>
   <v>      -0.00719123       0.00000000       0.00857306 </v>
   <v>      -0.02266788       0.00000000       0.02604056 </v>
   <v>      -0.02242670       0.03320523       0.01130393 </v>
   <v>      -0.00118708      -0.02286952      -0.02335553 </v>
   <v>       0.02462848       0.00000000       0.02505377 </v>
   <v>       0.02451556       0.02251039       0.00098045 </v>
   <v>       0.00007308       0.02452553       0.02217424 </v>
  </varray>
  <varray name="stress" >
   <v>      -7.84887048       0.00000000      -0.11347968 </v>
   <v>       0.00000000      -7.84637160       0.00000000 </v>
   <v>      -0.11348625       0.00000000      -8.00927852 </v>
  </varray>
  <energy>
   <i name="e_fr_energy">   -114.60243663 </i>
   <i name="e_wo_entrp">   -114.58564586 </i>
   <i name="e_0_energy">     -0.05037231 </i>
  </energy>
  <kpoints>
   <generation param="Monkhorst-Pack">
    <v type="int" name="divisions">       2        2        2 </v>
    <v name="usershift">      0.00000000       0.00000000       0.00000000 </v>
    <v name="genvec1">      0.50000000       0.00000000       0.00000000 </v>
    <v name="genvec2">      0.00000000       0.50000000       0.00000000 </v>
    <v name="genvec3">      0.00000000       0.00000000       0.50000000 </v>
    <v name="shift">      0.50000000       0.50000000       0.50000000 </v>
   </generation>
   <varray name="kpointlist" >
    <v>       0.25000000       0.25000000       0.25000000 </v>
    <v>      -0.25000000       0.25000000       0.25000000 </v>
   </varray>
   <varray name="weights" >
    <v>       0.50000000 </v>
    <v>       0.50000000 </v>
   </varray>
  </kpoints>
  <time name="totalsc">  499.31  208.24</time>
 </calculation>
 <calculation>
  <scstep>
   <time name="diag">    5.25    3.57</time>
   <time name="diis">   41.25   12.27</time>
   <time name="orth">    0.33    0.08</time>
   <time name="total">   51.07   20.00</time>
   <energy>
    <i name="alphaZ">     -6.10292531 </i>
    <i name="ewald">  -2231.92403619 </i>
    <i name="hartreedc">    -19.38165747 </i>
    <i name="XCdc">   -811.43680744 </i>
    <i name="pawpsdc">   1106.76906700 </i>
    <i name="pawaedc">   -116.56997385 </i>
    <i name="eentropy">     -0.05006653 </i>
    <i name="bandstr">    304.42666351 </i>
    <i name="atom">   1659.66634407 </i>
    <i name="e_fr_energy">   -114.60339220 </i>
    <i name="e_wo_entrp">   -114.55332567 </i>
    <i name="e_0_energy">   -114.58670336 </i>
   </energy>
  </scstep>
  <scstep>
   <time name="diag">    5.47    3.82</time>
   <time name="diis">   43.02   12.61</time>
   <time name="orth">    0.33    0.08</time>
   <time name="total">   53.12   20.71</time>
   <energy>
    <i name="e_fr_energy">   -114.60317443 </i>
    <i name="e_wo_entrp">   -114.55308638 </i>
    <i name="e_0_energy">   -114.58647842 </i>
   </energy>
  </scstep>
  <scstep>
   <time name="diag">    5.54    3.89</time>
   <time name="diis">   41.45   12.28</time>
   <time name="orth">    0.33    0.08</time>
   <time name="total">   51.87   20.70</time>
   <energy>
    <i name="e_fr_energy">   -114.60312884 </i>
    <i name="e_wo_entrp">   -114.55303640 </i>
    <i name="e_0_energy">   -114.58643136 </i>
   </energy>
  </scstep>
  <scstep>
   <time name="diag">    5.48    3.81</time>
   <time name="diis">   43.96   12.86</time>
   <time name="orth">    0.33    0.08</time>
   <time name="total">   54.11   20.97</time>
   <energy>
    <i name="e_fr_energy">   -114.60312928 </i>
    <i name="e_wo_entrp">   -114.55304166 </i>
    <i name="e_0_energy">   -114.58643341 </i>
   </energy>
  </scstep>
  <scstep>
   <time name="diag">    5.25    3.57</time>
   <time name="diis">   31.89    9.57</time>
   <time name="orth">    0.33    0.08</time>
   <time name="total">   39.74   15.41</time>
   <energy>
    <i name="alphaZ">     -6.10292531 </i>
    <i name="ewald">  -2231.92403619 </i>
    <i name="hartreedc">    -19.39290530 </i>
    <i name="XCdc">   -811.43686653 </i>
    <i name="pawpsdc">   1106.76922801 </i>
    <i name="pawaedc">   -116.57018269 </i>
    <i name="eentropy">     -0.05009015 </i>
    <i name="bandstr">    304.43830426 </i>
    <i name="atom">   1659.66634407 </i>
    <i name="e_fr_energy">   -114.60312982 </i>
    <i name="e_wo_entrp">   -114.55303967 </i>
    <i name="e_0_energy">   -114.58643310 </i>
   </energy>
  </scstep>
  <structure>
   <crystal>
    <varray name="basis" >
     <v>       8.08705400       0.00000000       0.00000000 </v>
     <v>       0.00000000       8.08705400       0.00000000 </v>
     <v>       0.00000000       0.00000000       8.08705400 </v>
    </varray>
    <i name="volume">    528.89690930 </i>
    <varray name="rec_basis" >
     <v>       0.12365442       0.00000000       0.00000000 </v>
     <v>       0.00000000       0.12365442       0.00000000 </v>
     <v>       0.00000000       0.00000000       0.12365442 </v>
    </varray>
   </crystal>
   <varray name="positions" >
    <v>       0.00000000       0.00000000       0.00000000 </v>
[...]
       <r>    8.3180   -0.0039 </r>
       <r>    9.1480    0.0000 </r>
       <r>    9.1498    0.0000 </r>
       <r>    9.1795    0.0000 </r>
       <r>    9.4085    0.0000 </r>
       <r>    9.4097    0.0000 </r>
       <r>    9.4353    0.0000 </r>
       <r>   10.0012    0.0000 </r>
       <r>   10.0195    0.0000 </r>
      </set>
      <set comment="kpoint 2">
       <r>   -2.9348    1.0000 </r>
       <r>   -1.8612    1.0000 </r>
       <r>   -1.8583    1.0000 </r>
       <r>   -1.6861    1.0000 </r>
       <r>   -0.7461    1.0000 </r>
       <r>   -0.7432    1.0000 </r>
       <r>   -0.4965    1.0000 </r>
       <r>    0.3572    1.0000 </r>
       <r>    0.3602    1.0000 </r>
       <r>    0.4267    1.0000 </r>
       <r>    0.6060    1.0000 </r>
       <r>    1.4266    1.0000 </r>
       <r>    1.4293    1.0000 </r>
       <r>    1.4536    1.0000 </r>
       <r>    1.5631    1.0000 </r>
       <r>    1.5652    1.0000 </r>
       <r>    1.9080    1.0000 </r>
       <r>    2.6332    1.0000 </r>
       <r>    2.6351    1.0000 </r>
       <r>    2.7522    1.0000 </r>
       <r>    3.5925    1.0000 </r>
       <r>    3.5951    1.0000 </r>
       <r>    3.6958    1.0000 </r>
       <r>    3.6966    1.0000 </r>
       <r>    3.6975    1.0000 </r>
       <r>    3.9906    1.0000 </r>
       <r>    4.6203    1.0000 </r>
       <r>    4.6236    1.0000 </r>
       <r>    4.6506    1.0000 </r>
       <r>    4.7170    1.0000 </r>
       <r>    4.7188    1.0000 </r>
       <r>    4.9098    1.0000 </r>
       <r>    4.9120    1.0000 </r>
       <r>    4.9149    1.0000 </r>
       <r>    5.1749    1.0000 </r>
       <r>    5.7613    1.0000 </r>
       <r>    5.7643    1.0000 </r>
       <r>    6.2245    1.0000 </r>
       <r>    6.7751    1.0000 </r>
       <r>    6.7919    1.0000 </r>
       <r>    6.7939    1.0000 </r>
       <r>    6.9712    1.0000 </r>
       <r>    7.0246    1.0000 </r>
       <r>    7.0305    1.0000 </r>
       <r>    7.0322    1.0000 </r>
       <r>    7.8337    0.6804 </r>
       <r>    7.8800    0.4894 </r>
       <r>    7.8827    0.4779 </r>
       <r>    8.0948   -0.0319 </r>
       <r>    8.0973   -0.0326 </r>
       <r>    8.1550   -0.0322 </r>
       <r>    8.1946   -0.0237 </r>
       <r>    8.1970   -0.0232 </r>
       <r>    8.3189   -0.0039 </r>
       <r>    9.1478    0.0000 </r>
       <r>    9.1502    0.0000 </r>
       <r>    9.1792    0.0000 </r>
       <r>    9.4076    0.0000 </r>
       <r>    9.4101    0.0000 </r>
       <r>    9.4353    0.0000 </r>
       <r>    9.9999    0.0000 </r>
       <r>   10.0300    0.0000 </r>
      </set>
     </set>
    </set>
   </array>
  </eigenvalues>
  <separator name="orbital magnetization" >
   <v name="MAGDIPOLOUT">      0.00000000      0.00000000      0.00000000</v>
  </separator>
  <dos>
   <i name="efermi">      7.87746312 </i>
   <total>
    <array>
     <dimension dim="1">gridpoints</dimension>
     <dimension dim="2">spin</dimension>
     <field>energy</field>
     <field>total</field>
     <field>integrated</field>
     <set>
      <set comment="spin 1">
       <r>  -4.9348   0.0000   0.0000 </r>
       <r>  -4.8782   0.0000   0.0000 </r>
       <r>  -4.8217   0.0000   0.0000 </r>
       <r>  -4.7651   0.0000   0.0000 </r>
       <r>  -4.7086   0.0000   0.0000 </r>
       <r>  -4.6520   0.0000   0.0000 </r>
       <r>  -4.5955   0.0000   0.0000 </r>
       <r>  -4.5389   0.0000   0.0000 </r>
       <r>  -4.4824   0.0000   0.0000 </r>
       <r>  -4.4258   0.0000   0.0000 </r>
       <r>  -4.3693   0.0000   0.0000 </r>
       <r>  -4.3127   0.0000   0.0000 </r>
       <r>  -4.2562   0.0000   0.0000 </r>
       <r>  -4.1996   0.0000   0.0000 </r>
       <r>  -4.1431   0.0000   0.0000 </r>
       <r>  -4.0865   0.0000   0.0000 </r>
       <r>  -4.0300   0.0000   0.0000 </r>
       <r>  -3.9734   0.0000   0.0000 </r>
       <r>  -3.9169   0.0000   0.0000 </r>
       <r>  -3.8603   0.0000   0.0000 </r>
       <r>  -3.8038   0.0000   0.0000 </r>
       <r>  -3.7472   0.0000   0.0000 </r>
       <r>  -3.6907   0.0000   0.0000 </r>
       <r>  -3.6341  -0.0001   0.0000 </r>
       <r>  -3.5776  -0.0008  -0.0001 </r>
       <r>  -3.5210  -0.0039  -0.0003 </r>
       <r>  -3.4645  -0.0157  -0.0012 </r>
       <r>  -3.4079  -0.0525  -0.0041 </r>
       <r>  -3.3514  -0.1412  -0.0121 </r>
       <r>  -3.2948  -0.2957  -0.0288 </r>
       <r>  -3.2383  -0.4400  -0.0537 </r>
       <r>  -3.1817  -0.3036  -0.0709 </r>
       <r>  -3.1252   0.5666  -0.0388 </r>
       <r>  -3.0686   2.5001   0.1025 </r>
       <r>  -3.0121   5.2012   0.3967 </r>
       <r>  -2.9555   7.5779   0.8252 </r>
       <r>  -2.8990   8.3504   1.2974 </r>
       <r>  -2.8424   7.0586   1.6966 </r>
       <r>  -2.7859   4.4608   1.9488 </r>
       <r>  -2.7293   1.8854   2.0554 </r>
       <r>  -2.6728   0.2388   2.0689 </r>
       <r>  -2.6162  -0.3911   2.0468 </r>
       <r>  -2.5597  -0.4141   2.0234 </r>
       <r>  -2.5031  -0.2515   2.0092 </r>
       <r>  -2.4466  -0.1187   2.0025 </r>
       <r>  -2.3900  -0.0700   1.9985 </r>
       <r>  -2.3335  -0.1155   1.9920 </r>
       <r>  -2.2769  -0.2858   1.9758 </r>
       <r>  -2.2204  -0.6024   1.9418 </r>
       <r>  -2.1638  -0.9266   1.8894 </r>
       <r>  -2.1073  -0.7474   1.8471 </r>
       <r>  -2.0507   0.8223   1.8936 </r>
       <r>  -1.9942   4.5145   2.1489 </r>
       <r>  -1.9376  10.0082   2.7148 </r>
       <r>  -1.8811  15.5789   3.5958 </r>
       <r>  -1.8245  19.0175   4.6712 </r>
       <r>  -1.7680  19.1464   5.7539 </r>
       <r>  -1.7114  16.4180   6.6824 </r>
       <r>  -1.6549  12.1852   7.3714 </r>
       <r>  -1.5984   7.7247   7.8083 </r>
       <r>  -1.5418   3.9034   8.0290 </r>
       <r>  -1.4853   1.2295   8.0985 </r>
       <r>  -1.4287  -0.1764   8.0885 </r>
       <r>  -1.3722  -0.5970   8.0548 </r>
       <r>  -1.3156  -0.5134   8.0258 </r>
       <r>  -1.2591  -0.3301   8.0071 </r>
       <r>  -1.2025  -0.2649   7.9921 </r>
       <r>  -1.1460  -0.3983   7.9696 </r>
       <r>  -1.0894  -0.7011   7.9299 </r>
       <r>  -1.0329  -0.9116   7.8784 </r>
       <r>  -0.9763  -0.3683   7.8576 </r>
       <r>  -0.9198   1.8346   7.9613 </r>
       <r>  -0.8632   6.0971   8.3061 </r>
       <r>  -0.8067  11.4342   8.9527 </r>
       <r>  -0.7501  15.6222   9.8361 </r>
       <r>  -0.6936  16.8008  10.7862 </r>
       <r>  -0.6370  15.0893  11.6395 </r>
       <r>  -0.5805  12.3047  12.3353 </r>
       <r>  -0.5239  10.0303  12.9025 </r>
       <r>  -0.4674   8.3328  13.3737 </r>
       <r>  -0.4108   6.4246  13.7370 </r>
       <r>  -0.3543   4.0333  13.9651 </r>
       <r>  -0.2977   1.7311  14.0630 </r>
       <r>  -0.2412   0.1951  14.0740 </r>
       <r>  -0.1846  -0.4401  14.0491 </r>
       <r>  -0.1281  -0.5307  14.0191 </r>
       <r>  -0.0715  -0.5314  13.9891 </r>
       <r>  -0.0150  -0.7260  13.9480 </r>
       <r>   0.0416  -1.1035  13.8856 </r>
       <r>   0.0981  -1.1969  13.8179 </r>
       <r>   0.1547   0.0193  13.8190 </r>
       <r>   0.2112   3.7277  14.0298 </r>
       <r>   0.2678  10.1770  14.6053 </r>
       <r>   0.3243  17.7083  15.6067 </r>
       <r>   0.3809  23.2697  16.9226 </r>
       <r>   0.4374  24.5355  18.3100 </r>
       <r>   0.4940  21.6776  19.5359 </r>
       <r>   0.5505  16.8666  20.4897 </r>
       <r>   0.6071  12.1743  21.1781 </r>
       <r>   0.6636   8.2882  21.6468 </r>
       <r>   0.7202   5.0236  21.9309 </r>
       <r>   0.7767   2.3349  22.0629 </r>
       <r>   0.8333   0.4854  22.0904 </r>
       <r>   0.8898  -0.4167  22.0668 </r>
       <r>   0.9464  -0.6589  22.0296 </r>
       <r>   1.0029  -0.7243  21.9886 </r>
       <r>   1.0595  -0.9846  21.9329 </r>
       <r>   1.1160  -1.4623  21.8502 </r>
       <r>   1.1726  -1.5875  21.7605 </r>
       <r>   1.2291  -0.0714  21.7564 </r>
       <r>   1.2857   4.6259  22.0180 </r>
       <r>   1.3422  13.0315  22.7549 </r>
       <r>   1.3988  23.4357  24.0802 </r>
       <r>   1.4553  32.1227  25.8967 </r>
       <r>   1.5119  35.3875  27.8978 </r>
       <r>   1.5684  31.8698  29.7001 </r>
       <r>   1.6249  23.3809  31.0222 </r>
       <r>   1.6815  13.7710  31.8010 </r>
       <r>   1.7380   6.7722  32.1839 </r>
       <r>   1.7946   4.1205  32.4169 </r>
       <r>   1.8511   4.9478  32.6967 </r>
       <r>   1.9077   6.7497  33.0784 </r>
       <r>   1.9642   7.2529  33.4886 </r>
       <r>   2.0208   5.8033  33.8167 </r>
       <r>   2.0773   3.3063  34.0037 </r>
       <r>   2.1339   1.0622  34.0638 </r>
       <r>   2.1904  -0.2859  34.0476 </r>
       <r>   2.2470  -0.9027  33.9966 </r>
       <r>   2.3035  -1.2112  33.9281 </r>
       <r>   2.3601  -1.2532  33.8572 </r>
       <r>   2.4166  -0.3892  33.8352 </r>
       <r>   2.4732   2.4150  33.9717 </r>
       <r>   2.5297   7.6722  34.4056 </r>
       <r>   2.5863  14.3897  35.2193 </r>
       <r>   2.6428  20.0754  36.3546 </r>
       <r>   2.6994  22.1526  37.6073 </r>
       <r>   2.7559  19.7246  38.7227 </r>
       <r>   2.8125  14.1163  39.5210 </r>
       <r>   2.8690   7.8183  39.9631 </r>
       <r>   2.9256   2.9050  40.1274 </r>
       <r>   2.9821   0.1518  40.1359 </r>
       <r>   3.0387  -0.8183  40.0897 </r>
       <r>   3.0952  -0.8548  40.0413 </r>
       <r>   3.1518  -0.6997  40.0018 </r>
       <r>   3.2083  -0.7775  39.9578 </r>
       <r>   3.2649  -1.1910  39.8904 </r>
       <r>   3.3214  -1.6312  39.7982 </r>
       <r>   3.3780  -1.1561  39.7328 </r>
       <r>   3.4345   1.7795  39.8335 </r>
       <r>   3.4911   8.5319  40.3159 </r>
       <r>   3.5476  18.8046  41.3793 </r>
       <r>   3.6042  29.6766  43.0575 </r>
       <r>   3.6607  36.5593  45.1249 </r>
       <r>   3.7173  36.0843  47.1654 </r>
       <r>   3.7738  28.7587  48.7917 </r>
       <r>   3.8304  18.8081  49.8553 </r>
       <r>   3.8869  11.0293  50.4790 </r>
       <r>   3.9435   7.4421  50.8998 </r>
       <r>   4.0000   6.6860  51.2779 </r>
       <r>   4.0566   6.1994  51.6285 </r>
       <r>   4.1131   4.6185  51.8897 </r>
       <r>   4.1697   2.2770  52.0184 </r>
       <r>   4.2262   0.0916  52.0236 </r>
       <r>   4.2828  -1.4644  51.9408 </r>
       <r>   4.3393  -2.2692  51.8125 </r>
       <r>   4.3959  -1.7457  51.7138 </r>
       <r>   4.4524   1.5107  51.7992 </r>
       <r>   4.5090   8.8229  52.2981 </r>
       <r>   4.5655  19.6437  53.4089 </r>
       <r>   4.6221  30.7179  55.1460 </r>
       <r>   4.6786  37.8249  57.2850 </r>
       <r>   4.7352  39.0554  59.4935 </r>
       <r>   4.7917  36.1876  61.5399 </r>
       <r>   4.8483  32.3882  63.3714 </r>
       <r>   4.9048  28.9219  65.0069 </r>
       <r>   4.9613  24.8242  66.4107 </r>
       <r>   5.0179  19.4314  67.5096 </r>
       <r>   5.0744  13.9421  68.2980 </r>
       <r>   5.1310  10.0445  68.8660 </r>
       <r>   5.1875   7.9187  69.3138 </r>
       <r>   5.2441   6.3316  69.6718 </r>
       <r>   5.3006   4.2768  69.9137 </r>
       <r>   5.3572   1.8739  70.0196 </r>
       <r>   5.4137  -0.1550  70.0109 </r>
       <r>   5.4703  -1.2210  69.9418 </r>
       <r>   5.5268  -0.8829  69.8919 </r>
       <r>   5.5834   1.3915  69.9706 </r>
       <r>   5.6399   5.8210  70.2998 </r>
       <r>   5.6965  11.3928  70.9440 </r>
       <r>   5.7530  15.6993  71.8318 </r>
       <r>   5.8096  16.3536  72.7566 </r>
       <r>   5.8661  12.9233  73.4874 </r>
       <r>   5.9227   7.3900  73.9053 </r>
       <r>   5.9792   2.6625  74.0558 </r>
       <r>   6.0358   0.6974  74.0953 </r>
       <r>   6.0923   1.7152  74.1923 </r>
       <r>   6.1489   4.5053  74.4470 </r>
       <r>   6.2054   7.1788  74.8530 </r>
       <r>   6.2620   8.1035  75.3112 </r>
       <r>   6.3185   6.7590  75.6934 </r>
       <r>   6.3751   3.9012  75.9141 </r>
       <r>   6.4316   0.8672  75.9631 </r>
       <r>   6.4882  -1.1976  75.8954 </r>
       <r>   6.5447  -1.4195  75.8151 </r>
       <r>   6.6013   1.0562  75.8748 </r>
       <r>   6.6578   6.6787  76.2525 </r>
       <r>   6.7144  14.5303  77.0742 </r>
       <r>   6.7709  22.2891  78.3346 </r>
       <r>   6.8275  27.9439  79.9148 </r>
       <r>   6.8840  31.4610  81.6939 </r>
       <r>   6.9406  33.9458  83.6135 </r>
       <r>   6.9971  35.1529  85.6014 </r>
       <r>   7.0537  32.9808  87.4664 </r>
       <r>   7.1102  26.0596  88.9401 </r>
       <r>   7.1668  16.0655  89.8485 </r>
       <r>   7.2233   6.7084  90.2279 </r>
       <r>   7.2799   0.7486  90.2702 </r>
       <r>   7.3364  -1.5872  90.1805 </r>
       <r>   7.3930  -1.7841  90.0796 </r>
       <r>   7.4495  -1.4320  89.9986 </r>
       <r>   7.5061  -1.3447  89.9226 </r>
       <r>   7.5626  -1.4442  89.8409 </r>
       <r>   7.6192  -0.8766  89.7913 </r>
       <r>   7.6757   1.6517  89.8847 </r>
       <r>   7.7323   6.9422  90.2773 </r>
       <r>   7.7888  14.1145  91.0755 </r>
       <r>   7.8454  20.5806  92.2393 </r>
       <r>   7.9019  24.0773  93.6008 </r>
       <r>   7.9585  25.1040  95.0204 </r>
       <r>   8.0150  26.7012  96.5304 </r>
       <r>   8.0716  31.1207  98.2902 </r>
       <r>   8.1281  36.9342 100.3788 </r>
       <r>   8.1846  39.9975 102.6406 </r>
       <r>   8.2412  37.2208 104.7454 </r>
       <r>   8.2977  29.0789 106.3898 </r>
       <r>   8.3543  18.7612 107.4508 </r>
       <r>   8.4108   9.5972 107.9935 </r>
       <r>   8.4674   3.3374 108.1822 </r>
       <r>   8.5239   0.0636 108.1858 </r>
       <r>   8.5805  -1.0685 108.1254 </r>
       <r>   8.6370  -1.1013 108.0631 </r>
       <r>   8.6936  -0.8582 108.0146 </r>
       <r>   8.7501  -0.8154 107.9685 </r>
       <r>   8.8067  -1.0966 107.9064 </r>
       <r>   8.8632  -1.3827 107.8283 </r>
       <r>   8.9198  -0.7525 107.7857 </r>
       <r>   8.9763   2.1121 107.9051 </r>
       <r>   9.0329   7.9215 108.3531 </r>
       <r>   9.0894  15.5176 109.2306 </r>
       <r>   9.1460  21.9902 110.4741 </r>
       <r>   9.2025  24.9320 111.8840 </r>
       <r>   9.2591  24.7853 113.2856 </r>
       <r>   9.3156  24.2206 114.6553 </r>
       <r>   9.3722  24.8134 116.0584 </r>
       <r>   9.4287  25.0423 117.4745 </r>
       <r>   9.4853  22.1907 118.7294 </r>
       <r>   9.5418  15.6946 119.6169 </r>
       <r>   9.5984   7.8680 120.0619 </r>
       <r>   9.6549   1.6456 120.1549 </r>
       <r>   9.7115  -1.5700 120.0661 </r>
       <r>   9.7680  -1.8793 119.9599 </r>
       <r>   9.8246   0.3233 119.9781 </r>
       <r>   9.8811   4.7479 120.2466 </r>
       <r>   9.9377  10.4201 120.8359 </r>
       <r>   9.9942  15.1516 121.6927 </r>
       <r>  10.0508  16.5486 122.6285 </r>
       <r>  10.1073  13.8667 123.4126 </r>
       <r>  10.1639   8.6938 123.9043 </r>
       <r>  10.2204   3.6416 124.1102 </r>
       <r>  10.2770   0.4415 124.1352 </r>
       <r>  10.3335  -0.7716 124.0915 </r>
       <r>  10.3901  -0.8090 124.0458 </r>
       <r>  10.4466  -0.4880 124.0182 </r>
       <r>  10.5032  -0.2171 124.0059 </r>
       <r>  10.5597  -0.0763 124.0016 </r>
       <r>  10.6163  -0.0218 124.0004 </r>
       <r>  10.6728  -0.0051 124.0001 </r>
       <r>  10.7294  -0.0010 124.0000 </r>
       <r>  10.7859  -0.0002 124.0000 </r>
       <r>  10.8425   0.0000 124.0000 </r>
       <r>  10.8990   0.0000 124.0000 </r>
       <r>  10.9556   0.0000 124.0000 </r>
       <r>  11.0121   0.0000 124.0000 </r>
       <r>  11.0687   0.0000 124.0000 </r>
       <r>  11.1252   0.0000 124.0000 </r>
       <r>  11.1818   0.0000 124.0000 </r>
       <r>  11.2383   0.0000 124.0000 </r>
       <r>  11.2949   0.0000 124.0000 </r>
       <r>  11.3514   0.0000 124.0000 </r>
       <r>  11.4080   0.0000 124.0000 </r>
       <r>  11.4645   0.0000 124.0000 </r>
       <r>  11.5210   0.0000 124.0000 </r>
       <r>  11.5776   0.0000 124.0000 </r>
       <r>  11.6341   0.0000 124.0000 </r>
       <r>  11.6907   0.0000 124.0000 </r>
       <r>  11.7472   0.0000 124.0000 </r>
       <r>  11.8038   0.0000 124.0000 </r>
       <r>  11.8603   0.0000 124.0000 </r>
       <r>  11.9169   0.0000 124.0000 </r>
       <r>  11.9734   0.0000 124.0000 </r>
       <r>  12.0300   0.0000 124.0000 </r>
      </set>
     </set>
    </array>
   </total>
  </dos>
 </calculation>
 <structure name="finalpos" >
  <crystal>
   <varray name="basis" >
    <v>       8.08705400       0.00000000       0.00000000 </v>
    <v>       0.00000000       8.08705400       0.00000000 </v>
    <v>       0.00000000       0.00000000       8.08705400 </v>
   </varray>
   <i name="volume">    528.89690930 </i>
   <varray name="rec_basis" >
    <v>       0.12365442       0.00000000       0.00000000 </v>
    <v>       0.00000000       0.12365442       0.00000000 </v>
    <v>       0.00000000       0.00000000       0.12365442 </v>
   </varray>
  </crystal>
  <varray name="positions" >
   <v>       0.00000000       0.00000000       0.00000000 </v>
   <v>       0.24945200       0.00000000       0.24945200 </v>
   <v>       0.24945200       0.24945200       0.00000000 </v>
   <v>       0.00000000       0.24945200       0.24945200 </v>
   <v>       0.50000000       0.00000000       0.00000000 </v>
   <v>       0.75054800       0.00000000       0.24945200 </v>
   <v>       0.75054800       0.24945200       0.00000000 </v>
   <v>       0.50000000       0.25322100       0.25322100 </v>
   <v>       0.00000000       0.50000000       0.00000000 </v>
   <v>       0.25322100       0.50000000       0.25136618 </v>
   <v>       0.24945200       0.75054800       0.00000000 </v>
   <v>       0.00000000       0.75054800       0.24945200 </v>
   <v>       0.50000000       0.50000000       0.00000000 </v>
   <v>       0.74677900       0.50000000       0.25322100 </v>
   <v>       0.75054800       0.75054800       0.00000000 </v>
   <v>       0.50000000       0.74677900       0.25322100 </v>
   <v>       0.00000000       0.00000000       0.50000000 </v>
   <v>       0.24945200       0.00000000       0.75054800 </v>
   <v>       0.25322100       0.25322100       0.50000000 </v>
   <v>       0.00000000       0.24945200       0.75054800 </v>
   <v>       0.50000000       0.00000000       0.50000000 </v>
   <v>       0.75054800       0.00000000       0.75054800 </v>
   <v>       0.74677900       0.25322100       0.50000000 </v>
   <v>       0.50000000       0.25322100       0.74677900 </v>
   <v>       0.00000000       0.50000000       0.50000000 </v>
   <v>       0.25322100       0.50000000       0.74677900 </v>
   <v>       0.25322100       0.74677900       0.50000000 </v>
   <v>       0.00000000       0.75054800       0.75054800 </v>
   <v>       0.74677900       0.50000000       0.74677900 </v>
   <v>       0.74677900       0.74677900       0.50000000 </v>
   <v>       0.50000000       0.74677900       0.74677900 </v>
  </varray>
  <varray name="selective"  type="logical" >
   <v type="logical" >  F  F  F </v>
   <v type="logical" >  F  F  F </v>
   <v type="logical" >  F  F  F </v>
   <v type="logical" >  F  F  F </v>
   <v type="logical" >  F  F  F </v>
   <v type="logical" >  F  F  F </v>
   <v type="logical" >  F  F  F </v>
   <v type="logical" >  F  F  F </v>
   <v type="logical" >  F  F  F </v>
   <v type="logical" >  T  T  T </v>
   <v type="logical" >  F  F  F </v>
   <v type="logical" >  F  F  F </v>
   <v type="logical" >  F  F  F </v>
   <v type="logical" >  F  F  F </v>
   <v type="logical" >  F  F  F </v>
   <v type="logical" >  F  F  F </v>
   <v type="logical" >  F  F  F </v>
   <v type="logical" >  F  F  F </v>
   <v type="logical" >  F  F  F </v>
   <v type="logical" >  F  F  F </v>
   <v type="logical" >  F  F  F </v>
   <v type="logical" >  F  F  F </v>
   <v type="logical" >  F  F  F </v>
   <v type="logical" >  F  F  F </v>
   <v type="logical" >  F  F  F </v>
   <v type="logical" >  F  F  F </v>
   <v type="logical" >  F  F  F </v>
   <v type="logical" >  F  F  F </v>
   <v type="logical" >  F  F  F </v>
   <v type="logical" >  F  F  F </v>
   <v type="logical" >  F  F  F </v>
  </varray>
  <nose>
   <v>      -3.00000000       0.00000000       0.00010000       0.00010000 </v>
  </nose>
 </structure>
</modeling>
