   32   32    1    1
  0.1652802E+02  0.8087052E-09  0.8087052E-09  0.8087052E-09  0.5000000E-15
  1.000000000000000E-004
  CAR 
 unknown system                          
   96    1   72
 
  0.2500000E+00  0.2500000E+00  0.2500000E+00  0.1000000E+01
   1       -2.713342
   2       -1.589243
   3       -1.589243
   4       -1.589243
   5       -0.473984
   6       -0.473984
   7       -0.473984
   8        0.631763
   9        0.631763
  10        0.631763
  11        0.633189
  12        1.729879
  13        1.729879
  14        1.729879
  15        1.729879
  16        1.729879
  17        1.729879
  18        2.818513
  19        2.818513
  20        2.818513
  21        3.862311
  22        3.862311
  23        3.862311
  24        3.896989
  25        3.896989
  26        3.896989
  27        4.928393
  28        4.928393
  29        4.928393
  30        4.928393
  31        4.928393
  32        4.928393
  33        4.991284
  34        4.991284
  35        4.991284
  36        6.012970
  37        6.012970
  38        6.012970
  39        7.059923
  40        7.059923
  41        7.059923
  42        7.059923
  43        7.059923
  44        7.059923
  45        7.122304
  46        8.123629
  47        8.123629
  48        8.123629
  49        8.123629
  50        8.123629
  51        8.123629
  52        8.360493
  53        8.360493
  54        8.360493
  55        9.444237
  56        9.444237
  57        9.444237
  58        9.444237
  59        9.444237
  60        9.444237
  61       10.199550
  62       10.199550
  63       10.199552
  64       10.223018
  65       10.223018
  66       10.223018
  67       10.519300
  68       10.519300
  69       10.519305
  70       11.210586
  71       11.211057
  72       11.507719
