<?xml version="1.0" encoding="ISO-8859-1"?>
<modeling>
 <generator>
  <i name="program" type="string">vasp </i>
  <i name="version" type="string">5.2.2  </i>
  <i name="subversion" type="string">15Apr09 complex  parallel </i>
  <i name="platform" type="string">LinuxIFC </i>
  <i name="date" type="string">2013 08 07 </i>
  <i name="time" type="string">14:18:03 </i>
 </generator>
 <incar>
  <i type="string" name="PREC">accurate</i>
  <i type="int" name="IBRION">     2</i>
  <i type="int" name="NSW">   191</i>
  <i type="int" name="ISIF">     3</i>
  <i name="ENCUT">    360.65550000</i>
  <i type="int" name="ISMEAR">     1</i>
  <i name="SIGMA">      0.20000000</i>
  <i type="logical" name="LWAVE"> F  </i>
  <i type="logical" name="LCHARG"> F  </i>
  <i type="logical" name="LPEAD"> F  </i>
  <i type="logical" name="LCALCPOL"> F  </i>
  <i type="logical" name="LCALCEPS"> F  </i>
  <v name="EFIELD_PEAD">      0.00000000      0.00000000      0.00000000</v>
  <i type="logical" name="LEFG"> F  </i>
 </incar>
 <kpoints>
  <generation param="Gamma">
   <v type="int" name="divisions">       1        1        1 </v>
   <v name="usershift">      0.00000000       0.00000000       0.00000000 </v>
   <v name="genvec1">      1.00000000       0.00000000       0.00000000 </v>
   <v name="genvec2">      0.00000000       1.00000000       0.00000000 </v>
   <v name="genvec3">      0.00000000       0.00000000       1.00000000 </v>
   <v name="shift">      0.00000000       0.00000000       0.00000000 </v>
  </generation>
  <varray name="kpointlist" >
   <v>       0.00000000       0.00000000       0.00000000 </v>
  </varray>
  <varray name="weights" >
   <v>       1.00000000 </v>
  </varray>
 </kpoints>
 <parameters>
  <separator name="general" >
   <i type="string" name="SYSTEM">unknown system</i>
   <i type="logical" name="LCOMPAT"> F  </i>
  </separator>
  <separator name="electronic" >
   <i type="string" name="PREC">accura</i>
   <i name="ENMAX">    360.65550000</i>
   <i name="ENAUG">    291.05200000</i>
   <i name="EDIFF">      0.00010000</i>
   <i type="int" name="IALGO">    38</i>
   <i type="int" name="IWAVPR">    11</i>
   <i type="int" name="NBANDS">    10</i>
   <i name="NELECT">     12.00000000</i>
   <separator name="electronic smearing" >
    <i type="int" name="ISMEAR">     1</i>
    <i name="SIGMA">      0.20000000</i>
   </separator>
   <separator name="electronic projectors" >
    <i type="logical" name="LREAL"> F  </i>
    <v name="ROPT">      0.00000000</v>
    <i type="int" name="LMAXPAW">  -100</i>
    <i type="int" name="LMAXMIX">     2</i>
   </separator>
   <separator name="electronic startup" >
    <i type="int" name="ISTART">     0</i>
    <i type="int" name="ICHARG">     2</i>
    <i type="int" name="INIWAV">     1</i>
   </separator>
   <separator name="electronic spin" >
    <i type="int" name="ISPIN">     1</i>
    <i type="logical" name="LNONCOLLINEAR"> F  </i>
    <v name="MAGMOM">      1.00000000      1.00000000      1.00000000      1.00000000</v>
    <i name="NUPDOWN">     -1.00000000</i>
    <i type="logical" name="LSORBIT"> F  </i>
    <v name="SAXIS">      0.00000000      0.00000000      1.00000000</v>
    <i type="logical" name="LSPIRAL"> F  </i>
    <v name="QSPIRAL">      0.00000000      0.00000000      0.00000000</v>
    <i type="logical" name="LZEROZ"> F  </i>
   </separator>
   <separator name="electronic exchange-correlation" >
    <i type="logical" name="LASPH"> F  </i>
    <i type="logical" name="LMETAGGA"> F  </i>
   </separator>
   <separator name="electronic convergence" >
    <i type="int" name="NELM">    60</i>
    <i type="int" name="NELMDL">    -5</i>
    <i type="int" name="NELMIN">     2</i>
    <i name="ENINI">    360.65550000</i>
    <separator name="electronic convergence detail" >
     <i type="logical" name="LDIAG"> T  </i>
     <i name="WEIMIN">      0.00100000</i>
     <i name="EBREAK">      0.00000250</i>
     <i name="DEPER">      0.30000000</i>
     <i type="int" name="NRMM">     4</i>
     <i name="TIME">      0.40000000</i>
    </separator>
   </separator>
   <separator name="electronic mixer" >
    <i name="AMIX">      0.40000000</i>
    <i name="BMIX">      1.00000000</i>
    <i name="AMIN">      0.10000000</i>
    <i name="AMIX_MAG">      1.60000000</i>
    <i name="BMIX_MAG">      1.00000000</i>
    <separator name="electronic mixer details" >
     <i type="int" name="IMIX">     4</i>
     <i type="int" name="MAXMIX">   -45</i>
     <i name="WC">    100.00000000</i>
     <i type="int" name="INIMIX">     1</i>
     <i type="int" name="MIXPRE">     1</i>
     <i type="int" name="MREMOVE">     5</i>
    </separator>
   </separator>
   <separator name="electronic dipolcorrection" >
    <i type="logical" name="LDIPOL"> F  </i>
    <i type="logical" name="LMONO"> F  </i>
    <i type="int" name="IDIPOL">     0</i>
    <i name="EPSILON">      1.00000000</i>
    <v name="DIPOL">   -100.00000000   -100.00000000   -100.00000000</v>
    <i name="EFIELD">      0.00000000</i>
   </separator>
  </separator>
  <separator name="grids" >
   <i type="int" name="NGX">    24</i>
   <i type="int" name="NGY">    24</i>
   <i type="int" name="NGZ">    24</i>
   <i type="int" name="NGXF">    48</i>
   <i type="int" name="NGYF">    48</i>
   <i type="int" name="NGZF">    48</i>
   <i type="logical" name="ADDGRID"> F  </i>
  </separator>
  <separator name="ionic" >
   <i type="int" name="NSW">   191</i>
   <i type="int" name="IBRION">     2</i>
   <i type="int" name="ISIF">     3</i>
   <i name="PSTRESS">      0.00000000</i>
   <i name="EDIFFG">      0.00100000</i>
   <i type="int" name="NFREE">     1</i>
   <i name="POTIM">      0.50000000</i>
   <i name="SMASS">     -3.00000000</i>
  </separator>
  <separator name="ionic md" >
   <i name="TEBEG">      0.00010000</i>
   <i name="TEEND">      0.00010000</i>
   <i type="int" name="NBLOCK">     1</i>
   <i type="int" name="KBLOCK">   191</i>
   <i type="int" name="NPACO">   256</i>
   <i name="APACO">     16.00000000</i>
  </separator>
  <separator name="symmetry" >
   <i type="int" name="ISYM">     2</i>
   <i name="SYMPREC">      0.00001000</i>
  </separator>
  <separator name="dos" >
   <i type="logical" name="LORBIT"> F  </i>
   <v name="RWIGS">     -1.00000000</v>
   <i type="int" name="NEDOS">   301</i>
   <i name="EMIN">     10.00000000</i>
   <i name="EMAX">    -10.00000000</i>
   <i name="EFERMI">      0.00000000</i>
  </separator>
  <separator name="writing" >
   <i type="int" name="NWRITE">     2</i>
   <i type="logical" name="LWAVE"> F  </i>
   <i type="logical" name="LCHARG"> F  </i>
   <i type="logical" name="LPARD"> F  </i>
   <i type="logical" name="LVTOT"> F  </i>
   <i type="logical" name="LELF"> F  </i>
   <i type="logical" name="LOPTICS"> F  </i>
   <v name="STM">      0.00000000      0.00000000      0.00000000      0.00000000      0.00000000</v>
  </separator>
  <separator name="performance" >
   <i type="int" name="NPAR">     1</i>
   <i type="int" name="NSIM">     4</i>
   <i type="int" name="NBLK">    32</i>
   <i type="logical" name="LPLANE"> T  </i>
   <i type="logical" name="LSCALAPACK"> F  </i>
   <i type="logical" name="LSCAAWARE"> F  </i>
   <i type="logical" name="LSCALU"> F  </i>
   <i type="logical" name="LASYNC"> F  </i>
  </separator>
  <separator name="miscellaneous" >
   <i type="int" name="IDIOT">     3</i>
   <i type="logical" name="LMUSIC"> F  </i>
   <v name="POMASS">     26.98200000</v>
   <i type="logical" name="LCORR"> T  </i>
  </separator>
  <i type="logical" name="LREAL_COMPAT"> F  </i>
  <i type="logical" name="GGA_COMPAT"> T  </i>
  <i type="logical" name="LBERRY"> F  </i>
  <i type="int" name="ICORELEVEL">     0</i>
  <i type="logical" name="LDAU"> F  </i>
  <i type="int" name="I_CONSTRAINED_M">     0</i>
  <separator name="electronic exchange-correlation" >
   <i type="string" name="GGA">--</i>
   <i type="int" name="VOSKOWN">     0</i>
   <i type="logical" name="LHFCALC"> F  </i>
   <i type="logical" name="LHFONE"> F  </i>
   <i type="logical" name="LRHFCALC"> F  </i>
   <i type="logical" name="LTHOMAS"> F  </i>
   <i type="logical" name="LMODELHF"> F  </i>
   <i name="ENCUTFOCK">      0.00000000</i>
   <i name="ENCUT4O">     -1.00000000</i>
   <i type="int" name="EXXOEP">     0</i>
   <i type="int" name="FOURORBIT">     0</i>
   <i name="AEXX">      0.00000000</i>
   <i name="HFALPHA">      0.00000000</i>
   <i name="ALDAX">      1.00000000</i>
   <i name="AGGAX">      1.00000000</i>
   <i name="ALDAC">      1.00000000</i>
   <i name="AGGAC">      1.00000000</i>
   <i type="int" name="NKREDX">     1</i>
   <i type="int" name="NKREDY">     1</i>
   <i type="int" name="NKREDZ">     1</i>
   <i type="logical" name="SHIFTRED"> F  </i>
   <i type="logical" name="ODDONLY"> F  </i>
   <i type="logical" name="EVENONLY"> F  </i>
   <i type="int" name="LMAXFOCK">     0</i>
   <i type="int" name="NMAXFOCKAE">     0</i>
   <i name="HFSCREEN">      0.00000000</i>
   <i name="HFSCREENC">      0.00000000</i>
  </separator>
  <separator name="model GW" >
   <i type="int" name="MODEL_GW">     0</i>
   <i name="MODEL_EPS0">      6.43125000</i>
   <i name="MODEL_ALPHA">      1.00000000</i>
  </separator>
  <separator name="linear response parameters" >
   <i type="logical" name="LEPSILON"> F  </i>
   <i type="logical" name="LRPA"> F  </i>
   <i type="logical" name="LNABLA"> F  </i>
   <i type="logical" name="LVEL"> F  </i>
   <i type="int" name="KINTER">     0</i>
   <i name="CSHIFT">      0.10000000</i>
   <i name="OMEGAMAX">     -1.00000000</i>
  </separator>
  <separator name="orbital magnetization" >
   <i type="logical" name="ORBITALMAG"> F  </i>
   <i type="logical" name="LMAGBLOCH"> F  </i>
   <i type="logical" name="LCHIMAG"> F  </i>
   <i type="logical" name="LGAUGE"> T  </i>
   <i type="int" name="MAGATOM">     0</i>
   <v name="MAGDIPOL">      0.00000000      0.00000000      0.00000000</v>
   <v name="AVECCONST">      0.00000000      0.00000000      0.00000000</v>
  </separator>
  <separator name="response functions" >
   <i type="logical" name="LRPA"> T  </i>
   <i type="logical" name="LTCTE"> F  </i>
   <i type="logical" name="LTETE"> F  </i>
   <i type="logical" name="L2ORDER"> F  </i>
   <i type="logical" name="LGWLF"> F  </i>
   <i name="ENCUTGW">    240.43700000</i>
   <i name="ENCUTGWSOFT">     -2.00000000</i>
   <i name="ENCUTLF">     -1.00000000</i>
   <i type="int" name="LMAXMP2">    -1</i>
   <i name="SCISSOR">      0.00000000</i>
   <i type="int" name="NOMEGA">     0</i>
   <i type="int" name="NOMEGAR">     0</i>
   <i type="int" name="NBANDSGW">    -1</i>
   <i type="int" name="NBANDSLF">    -1</i>
   <i type="int" name="NELM">     1</i>
   <i type="int" name="DIM">     3</i>
   <i type="int" name="ANTIRES">     0</i>
   <i type="logical" name="LUSEW"> F  </i>
   <i name="OMEGAMAX">    -30.00000000</i>
   <i name="OMEGATL">   -200.00000000</i>
   <i type="int" name="OMEGAGRID">     0</i>
   <i name="CSHIFT">     -0.10000000</i>
   <i type="logical" name="SELFENERGY"> F  </i>
   <i type="logical" name="LSPECTRAL"> F  </i>
   <i type="logical" name="ODDONLYGW"> F  </i>
   <i type="logical" name="EVENONLYGW"> F  </i>
   <i type="int" name="NKREDLFX">     1</i>
   <i type="int" name="NKREDLFY">     1</i>
   <i type="int" name="NKREDLFZ">     1</i>
   <i type="int" name="MAXMEM">  1024</i>
   <i type="int" name="TELESCOPE">     0</i>
  </separator>
 </parameters>
 <atominfo>
  <atoms>       4 </atoms>
  <types>       1 </types>
  <array name="atoms" >
   <dimension dim="1">ion</dimension>
   <field type="string">element</field>
   <field type="int">atomtype</field>
   <set>
    <rc><c>Al</c><c>   1</c></rc>
    <rc><c>Al</c><c>   1</c></rc>
    <rc><c>Al</c><c>   1</c></rc>
    <rc><c>Al</c><c>   1</c></rc>
   </set>
  </array>
  <array name="atomtypes" >
   <dimension dim="1">type</dimension>
   <field type="int">atomspertype</field>
   <field type="string">element</field>
   <field>mass</field>
   <field>valence</field>
   <field type="string">pseudopotential</field>
   <set>
    <rc><c>   4</c><c>Al</c><c>     26.98200000</c><c>      3.00000000</c><c> PAW_GGA Al 05Jan2001                   </c></rc>
   </set>
  </array>
 </atominfo>
 <structure name="initialpos" >
  <crystal>
   <varray name="basis" >
    <v>       3.50000000       0.00000000       0.00000000 </v>
    <v>       0.00000000       3.50000000       0.00000000 </v>
    <v>       0.00000000       0.00000000       3.50000000 </v>
   </varray>
   <i name="volume">     42.87500000 </i>
   <varray name="rec_basis" >
    <v>       0.28571429       0.00000000       0.00000000 </v>
    <v>       0.00000000       0.28571429       0.00000000 </v>
    <v>       0.00000000       0.00000000       0.28571429 </v>
   </varray>
  </crystal>
  <varray name="positions" >
   <v>       0.00000000       0.00000000       0.00000000 </v>
   <v>       0.50000000       0.50000000       0.00000000 </v>
   <v>       0.00000000       0.50000000       0.50000000 </v>
   <v>       0.50000000       0.00000000       0.50000000 </v>
  </varray>
 </structure>
 <calculation>
  <scstep>
   <time name="dav">    0.28    0.08</time>
   <time name="total">    0.65    0.36</time>
   <energy>
    <i name="alphaZ">     -0.95025134 </i>
    <i name="ewald">   -339.53677075 </i>
    <i name="hartreedc">     -0.31427939 </i>
    <i name="XCdc">   -102.39814582 </i>
    <i name="pawpsdc">    142.63640024 </i>
    <i name="pawaedc">    -14.42330091 </i>
    <i name="eentropy">      0.01159581 </i>
    <i name="bandstr">    128.24816815 </i>
    <i name="atom">    214.76153871 </i>
    <i name="e_fr_energy">     28.03495469 </i>
    <i name="e_wo_entrp">     28.02335888 </i>
    <i name="e_0_energy">     28.03108942 </i>
   </energy>
  </scstep>
  <scstep>
   <time name="dav">    0.41    0.10</time>
   <time name="total">    0.42    0.11</time>
   <energy>
    <i name="e_fr_energy">     -1.87757436 </i>
    <i name="e_wo_entrp">     -1.74067803 </i>
    <i name="e_0_energy">     -1.83194225 </i>
   </energy>
  </scstep>
  <scstep>
   <time name="dav">    0.34    0.09</time>
   <time name="total">    0.35    0.09</time>
   <energy>
    <i name="e_fr_energy">     -2.21690026 </i>
    <i name="e_wo_entrp">     -2.06755704 </i>
    <i name="e_0_energy">     -2.16711919 </i>
   </energy>
  </scstep>
  <scstep>
   <time name="dav">    0.32    0.08</time>
   <time name="total">    0.33    0.08</time>
   <energy>
    <i name="e_fr_energy">     -2.21862679 </i>
    <i name="e_wo_entrp">     -2.06928319 </i>
    <i name="e_0_energy">     -2.16884559 </i>
   </energy>
  </scstep>
  <scstep>
   <time name="dav">    0.31    0.08</time>
   <time name="total">    0.46    0.13</time>
   <energy>
    <i name="e_fr_energy">     -2.21864027 </i>
    <i name="e_wo_entrp">     -2.06929667 </i>
    <i name="e_0_energy">     -2.16885907 </i>
   </energy>
  </scstep>
  <scstep>
   <time name="dav">    0.31    0.09</time>
   <time name="total">    0.73    0.41</time>
   <energy>
    <i name="e_fr_energy">     -2.10055144 </i>
    <i name="e_wo_entrp">     -1.95120785 </i>
    <i name="e_0_energy">     -2.05077024 </i>
   </energy>
  </scstep>
  <scstep>
   <time name="dav">    0.31    0.09</time>
   <time name="total">    0.72    0.41</time>
   <energy>
    <i name="e_fr_energy">     -2.01653210 </i>
    <i name="e_wo_entrp">     -1.86718851 </i>
    <i name="e_0_energy">     -1.96675090 </i>
   </energy>
  </scstep>
  <scstep>
   <time name="dav">    0.22    0.07</time>
   <time name="total">    0.68    0.39</time>
   <energy>
    <i name="e_fr_energy">     -2.01633900 </i>
    <i name="e_wo_entrp">     -1.86699541 </i>
    <i name="e_0_energy">     -1.96655780 </i>
   </energy>
  </scstep>
  <scstep>
   <time name="dav">    0.17    0.05</time>
   <time name="total">    0.52    0.34</time>
   <energy>
    <i name="alphaZ">     -0.95025134 </i>
    <i name="ewald">   -339.53677075 </i>
    <i name="hartreedc">     -1.03414501 </i>
    <i name="XCdc">   -101.47208087 </i>
    <i name="pawpsdc">    152.01699068 </i>
    <i name="pawaedc">    -24.32875051 </i>
    <i name="eentropy">     -0.14934360 </i>
    <i name="bandstr">     98.67649920 </i>
    <i name="atom">    214.76153871 </i>
    <i name="e_fr_energy">     -2.01631349 </i>
    <i name="e_wo_entrp">     -1.86696989 </i>
    <i name="e_0_energy">     -1.96653229 </i>
   </energy>
  </scstep>
  <structure>
   <crystal>
    <varray name="basis" >
     <v>       3.50000000       0.00000000       0.00000000 </v>
     <v>       0.00000000       3.50000000       0.00000000 </v>
     <v>       0.00000000       0.00000000       3.50000000 </v>
    </varray>
    <i name="volume">     42.87500000 </i>
    <varray name="rec_basis" >
     <v>       0.28571429       0.00000000       0.00000000 </v>
     <v>       0.00000000       0.28571429       0.00000000 </v>
     <v>       0.00000000       0.00000000       0.28571429 </v>
    </varray>
   </crystal>
   <varray name="positions" >
    <v>       0.00000000       0.00000000       0.00000000 </v>
    <v>       0.50000000       0.50000000       0.00000000 </v>
    <v>       0.00000000       0.50000000       0.50000000 </v>
    <v>       0.50000000       0.00000000       0.50000000 </v>
   </varray>
  </structure>
  <varray name="forces" >
   <v>       0.00000000       0.00000000       0.00000000 </v>
   <v>       0.00000000       0.00000000       0.00000000 </v>
   <v>       0.00000000       0.00000000       0.00000000 </v>
   <v>       0.00000000       0.00000000       0.00000000 </v>
  </varray>
  <varray name="stress" >
   <v>     992.00592561       0.00000000       0.00000000 </v>
   <v>       0.00000000     992.00592561       0.00000000 </v>
   <v>       0.00000000       0.00000000     992.00592561 </v>
  </varray>
  <energy>
   <i name="e_fr_energy">     -2.01631349 </i>
   <i name="e_wo_entrp">     -1.96653229 </i>
   <i name="e_0_energy">     -0.14934360 </i>
  </energy>
  <time name="totalsc">    6.34    3.38</time>
 </calculation>
 <calculation>
  <scstep>
   <time name="dav">    0.28    0.08</time>
   <time name="total">    0.78    0.39</time>
   <energy>
    <i name="alphaZ">     -0.41300003 </i>
    <i name="ewald">   -257.19193546 </i>
    <i name="hartreedc">     -0.78340818 </i>
    <i name="XCdc">   -107.13119497 </i>
    <i name="pawpsdc">    152.01578742 </i>
    <i name="pawaedc">    -24.32759363 </i>
    <i name="eentropy">     -0.15628515 </i>
    <i name="bandstr">     14.47146278 </i>
    <i name="atom">    214.76153871 </i>
    <i name="e_fr_energy">     -8.75462851 </i>
    <i name="e_wo_entrp">     -8.59834337 </i>
    <i name="e_0_energy">     -8.70253347 </i>
   </energy>
  </scstep>
  <scstep>
   <time name="dav">    0.32    0.09</time>
   <time name="total">    0.72    0.40</time>
   <energy>
    <i name="e_fr_energy">     -8.14173502 </i>
    <i name="e_wo_entrp">     -8.00903518 </i>
    <i name="e_0_energy">     -8.09750174 </i>
   </energy>
  </scstep>
  <scstep>
   <time name="dav">    0.35    0.10</time>
   <time name="total">    0.75    0.41</time>
   <energy>
    <i name="e_fr_energy">     -7.80290429 </i>
    <i name="e_wo_entrp">     -7.70536750 </i>
    <i name="e_0_energy">     -7.77039202 </i>
   </energy>
  </scstep>
  <scstep>
   <time name="dav">    0.28    0.08</time>
   <time name="total">    0.73    0.40</time>
   <energy>
    <i name="e_fr_energy">     -7.80305466 </i>
    <i name="e_wo_entrp">     -7.70874364 </i>
    <i name="e_0_energy">     -7.77161765 </i>
   </energy>
  </scstep>
  <scstep>
   <time name="dav">    0.26    0.07</time>
   <time name="total">    0.74    0.39</time>
   <energy>
    <i name="e_fr_energy">     -7.80350297 </i>
    <i name="e_wo_entrp">     -7.71018345 </i>
    <i name="e_0_energy">     -7.77239646 </i>
   </energy>
  </scstep>
  <scstep>
   <time name="dav">    0.17    0.05</time>
   <time name="total">    0.54    0.33</time>
   <energy>
    <i name="alphaZ">     -0.41300003 </i>
    <i name="ewald">   -257.19193546 </i>
    <i name="hartreedc">     -1.14916957 </i>
    <i name="XCdc">   -107.99021771 </i>
    <i name="pawpsdc">    140.66398323 </i>
    <i name="pawaedc">    -12.40435806 </i>
    <i name="eentropy">     -0.09331270 </i>
    <i name="bandstr">     16.01297145 </i>
    <i name="atom">    214.76153871 </i>
    <i name="e_fr_energy">     -7.80350014 </i>
    <i name="e_wo_entrp">     -7.71018744 </i>
    <i name="e_0_energy">     -7.77239590 </i>
   </energy>
  </scstep>
  <structure>
   <crystal>
    <varray name="basis" >
     <v>       4.62059083       0.00000000       0.00000000 </v>
     <v>       0.00000000       4.62059083       0.00000000 </v>
     <v>       0.00000000       0.00000000       4.62059083 </v>
    </varray>
    <i name="volume">     98.64896535 </i>
    <varray name="rec_basis" >
     <v>       0.21642254       0.00000000       0.00000000 </v>
     <v>       0.00000000       0.21642254       0.00000000 </v>
     <v>       0.00000000       0.00000000       0.21642254 </v>
    </varray>
   </crystal>
   <varray name="positions" >
    <v>       0.00000000       0.00000000       0.00000000 </v>
    <v>       0.50000000       0.50000000       0.00000000 </v>
    <v>       0.00000000       0.50000000       0.50000000 </v>
    <v>       0.50000000       0.00000000       0.50000000 </v>
   </varray>
  </structure>
  <varray name="forces" >
   <v>       0.00000000       0.00000000       0.00000000 </v>
   <v>       0.00000000       0.00000000       0.00000000 </v>
   <v>       0.00000000       0.00000000       0.00000000 </v>
   <v>       0.00000000       0.00000000       0.00000000 </v>
  </varray>
  <varray name="stress" >
   <v>     -76.29725495       0.00000000       0.00000000 </v>
   <v>       0.00000000     -76.29725495       0.00000000 </v>
   <v>       0.00000000       0.00000000     -76.29725495 </v>
  </varray>
  <energy>
   <i name="e_fr_energy">     -7.80350014 </i>
   <i name="e_wo_entrp">     -7.77239590 </i>
   <i name="e_0_energy">     -0.09331270 </i>
  </energy>
  <time name="totalsc">    5.57    3.20</time>
 </calculation>
 <calculation>
  <scstep>
   <time name="dav">    0.28    0.08</time>
   <time name="total">    0.79    0.39</time>
   <energy>
    <i name="alphaZ">     -0.54737918 </i>
    <i name="ewald">   -282.51189726 </i>
    <i name="hartreedc">     -1.26343215 </i>
    <i name="XCdc">   -106.48275509 </i>
    <i name="pawpsdc">    140.69503191 </i>
    <i name="pawaedc">    -12.43722122 </i>
    <i name="eentropy">     -0.14934360 </i>
    <i name="bandstr">     39.38596884 </i>
    <i name="atom">    214.76153871 </i>
    <i name="e_fr_energy">     -8.54948904 </i>
    <i name="e_wo_entrp">     -8.40014544 </i>
    <i name="e_0_energy">     -8.49970784 </i>
   </energy>
  </scstep>
  <scstep>
   <time name="dav">    0.31    0.09</time>
   <time name="total">    0.72    0.40</time>
   <energy>
    <i name="e_fr_energy">     -8.44395651 </i>
    <i name="e_wo_entrp">     -8.29461291 </i>
    <i name="e_0_energy">     -8.39417531 </i>
   </energy>
  </scstep>
  <scstep>
   <time name="dav">    0.34    0.10</time>
   <time name="total">    0.75    0.41</time>
   <energy>
    <i name="e_fr_energy">     -8.35937657 </i>
    <i name="e_wo_entrp">     -8.21003297 </i>
    <i name="e_0_energy">     -8.30959537 </i>
   </energy>
  </scstep>
  <scstep>
   <time name="dav">    0.32    0.09</time>
   <time name="total">    0.62    0.36</time>
   <energy>
    <i name="alphaZ">     -0.54737918 </i>
    <i name="ewald">   -282.51189726 </i>
    <i name="hartreedc">     -0.41501318 </i>
    <i name="XCdc">   -106.08298242 </i>
    <i name="pawpsdc">    142.20151015 </i>
    <i name="pawaedc">    -14.01975724 </i>
    <i name="eentropy">     -0.14934360 </i>
    <i name="bandstr">     38.40400863 </i>
    <i name="atom">    214.76153871 </i>
    <i name="e_fr_energy">     -8.35931538 </i>
    <i name="e_wo_entrp">     -8.20997179 </i>
    <i name="e_0_energy">     -8.30953418 </i>
   </energy>
  </scstep>
  <structure>
   <crystal>
    <varray name="basis" >
     <v>       4.20647310       0.00000000       0.00000000 </v>
     <v>       0.00000000       4.20647310       0.00000000 </v>
     <v>       0.00000000       0.00000000       4.20647310 </v>
    </varray>
    <i name="volume">     74.43108493 </i>
    <varray name="rec_basis" >
     <v>       0.23772885       0.00000000       0.00000000 </v>
     <v>       0.00000000       0.23772885       0.00000000 </v>
     <v>       0.00000000       0.00000000       0.23772885 </v>
    </varray>
   </crystal>
   <varray name="positions" >
    <v>       0.00000000       0.00000000       0.00000000 </v>
    <v>       0.50000000       0.50000000       0.00000000 </v>
    <v>       0.00000000       0.50000000       0.50000000 </v>
    <v>       0.50000000       0.00000000       0.50000000 </v>
   </varray>
  </structure>
  <varray name="forces" >
   <v>       0.00000000       0.00000000       0.00000000 </v>
   <v>       0.00000000       0.00000000       0.00000000 </v>
   <v>       0.00000000       0.00000000       0.00000000 </v>
   <v>       0.00000000       0.00000000       0.00000000 </v>
  </varray>
  <varray name="stress" >
   <v>      21.78998832       0.00000000       0.00000000 </v>
   <v>       0.00000000      21.78998832       0.00000000 </v>
   <v>       0.00000000       0.00000000      21.78998832 </v>
  </varray>
  <energy>
   <i name="e_fr_energy">     -8.35931538 </i>
   <i name="e_wo_entrp">     -8.30953418 </i>
   <i name="e_0_energy">     -0.14934360 </i>
  </energy>
  <time name="totalsc">    4.19    2.50</time>
 </calculation>
 <calculation>
  <scstep>
   <time name="dav">    0.28    0.08</time>
   <time name="total">    0.79    0.39</time>
   <energy>
    <i name="alphaZ">     -0.51969118 </i>
    <i name="ewald">   -277.66582713 </i>
    <i name="hartreedc">     -0.41045782 </i>
    <i name="XCdc">   -106.38625768 </i>
    <i name="pawpsdc">    142.27739740 </i>
    <i name="pawaedc">    -14.10258162 </i>
    <i name="eentropy">     -0.14934359 </i>
    <i name="bandstr">     33.80914818 </i>
    <i name="atom">    214.76153871 </i>
    <i name="e_fr_energy">     -8.38607473 </i>
    <i name="e_wo_entrp">     -8.23673114 </i>
    <i name="e_0_energy">     -8.33629353 </i>
   </energy>
  </scstep>
  <scstep>
   <time name="dav">    0.29    0.08</time>
   <time name="total">    0.70    0.39</time>
   <energy>
    <i name="e_fr_energy">     -8.38253941 </i>
    <i name="e_wo_entrp">     -8.23319582 </i>
    <i name="e_0_energy">     -8.33275821 </i>
   </energy>
  </scstep>
  <scstep>
   <time name="dav">    0.35    0.11</time>
   <time name="total">    0.76    0.41</time>
   <energy>
    <i name="e_fr_energy">     -8.38009383 </i>
    <i name="e_wo_entrp">     -8.23075023 </i>
    <i name="e_0_energy">     -8.33031263 </i>
   </energy>
  </scstep>
  <scstep>
   <time name="dav">    0.24    0.08</time>
   <time name="total">    0.54    0.34</time>
   <energy>
    <i name="alphaZ">     -0.51969118 </i>
    <i name="ewald">   -277.66582713 </i>
    <i name="hartreedc">     -0.48661361 </i>
    <i name="XCdc">   -106.45527382 </i>
    <i name="pawpsdc">    141.93701487 </i>
    <i name="pawaedc">    -13.74471198 </i>
    <i name="eentropy">     -0.14934359 </i>
    <i name="bandstr">     33.94281658 </i>
    <i name="atom">    214.76153871 </i>
    <i name="e_fr_energy">     -8.38009117 </i>
    <i name="e_wo_entrp">     -8.23074757 </i>
    <i name="e_0_energy">     -8.33030997 </i>
   </energy>
  </scstep>
  <structure>
   <crystal>
    <varray name="basis" >
     <v>       4.27988820       0.00000000       0.00000000 </v>
     <v>       0.00000000       4.27988820       0.00000000 </v>
     <v>       0.00000000       0.00000000       4.27988820 </v>
    </varray>
    <i name="volume">     78.39660828 </i>
    <varray name="rec_basis" >
     <v>       0.23365096       0.00000000       0.00000000 </v>
     <v>       0.00000000       0.23365096       0.00000000 </v>
     <v>       0.00000000       0.00000000       0.23365096 </v>
    </varray>
   </crystal>
   <varray name="positions" >
    <v>       0.00000000       0.00000000       0.00000000 </v>
    <v>       0.50000000       0.50000000       0.00000000 </v>
    <v>       0.00000000       0.50000000       0.50000000 </v>
    <v>       0.50000000       0.00000000       0.50000000 </v>
   </varray>
  </structure>
  <varray name="forces" >
   <v>       0.00000000       0.00000000       0.00000000 </v>
   <v>       0.00000000       0.00000000       0.00000000 </v>
   <v>       0.00000000       0.00000000       0.00000000 </v>
   <v>       0.00000000       0.00000000       0.00000000 </v>
  </varray>
  <varray name="stress" >
   <v>      -4.03987519       0.00000000       0.00000000 </v>
   <v>       0.00000000      -4.03987519       0.00000000 </v>
   <v>       0.00000000       0.00000000      -4.03987519 </v>
  </varray>
  <energy>
   <i name="e_fr_energy">     -8.38009117 </i>
   <i name="e_wo_entrp">     -8.33030997 </i>
   <i name="e_0_energy">     -0.14934359 </i>
  </energy>
  <time name="totalsc">    4.09    2.47</time>
 </calculation>
 <calculation>
  <scstep>
   <time name="dav">    0.28    0.08</time>
   <time name="total">    0.79    0.39</time>
   <energy>
    <i name="alphaZ">     -0.52408501 </i>
    <i name="ewald">   -278.44615845 </i>
    <i name="hartreedc">     -0.48767422 </i>
    <i name="XCdc">   -106.40718582 </i>
    <i name="pawpsdc">    141.92110557 </i>
    <i name="pawaedc">    -13.72743897 </i>
    <i name="eentropy">     -0.14934360 </i>
    <i name="bandstr">     34.67809628 </i>
    <i name="atom">    214.76153871 </i>
    <i name="e_fr_energy">     -8.38114550 </i>
    <i name="e_wo_entrp">     -8.23180191 </i>
    <i name="e_0_energy">     -8.33136431 </i>
   </energy>
  </scstep>
  <scstep>
   <time name="dav">    0.22    0.07</time>
   <time name="total">    0.48    0.33</time>
   <energy>
    <i name="alphaZ">     -0.52408501 </i>
    <i name="ewald">   -278.44615845 </i>
    <i name="hartreedc">     -0.48205046 </i>
    <i name="XCdc">   -106.40299602 </i>
    <i name="pawpsdc">    141.94064067 </i>
    <i name="pawaedc">    -13.74782917 </i>
    <i name="eentropy">     -0.14934360 </i>
    <i name="bandstr">     34.66923552 </i>
    <i name="atom">    214.76153871 </i>
    <i name="e_fr_energy">     -8.38104780 </i>
    <i name="e_wo_entrp">     -8.23170421 </i>
    <i name="e_0_energy">     -8.33126661 </i>
   </energy>
  </scstep>
  <structure>
   <crystal>
    <varray name="basis" >
     <v>       4.26789403       0.00000000       0.00000000 </v>
     <v>       0.00000000       4.26789403       0.00000000 </v>
     <v>       0.00000000       0.00000000       4.26789403 </v>
    </varray>
    <i name="volume">     77.73934604 </i>
    <varray name="rec_basis" >
     <v>       0.23430760       0.00000000       0.00000000 </v>
     <v>       0.00000000       0.23430760       0.00000000 </v>
     <v>       0.00000000       0.00000000       0.23430760 </v>
    </varray>
   </crystal>
   <varray name="positions" >
    <v>       0.00000000       0.00000000       0.00000000 </v>
    <v>       0.50000000       0.50000000       0.00000000 </v>
    <v>       0.00000000       0.50000000       0.50000000 </v>
    <v>       0.50000000       0.00000000       0.50000000 </v>
   </varray>
  </structure>
  <varray name="forces" >
   <v>       0.00000000       0.00000000       0.00000000 </v>
   <v>       0.00000000       0.00000000       0.00000000 </v>
   <v>       0.00000000       0.00000000       0.00000000 </v>
   <v>       0.00000000       0.00000000       0.00000000 </v>
  </varray>
  <varray name="stress" >
   <v>      -0.94713739       0.00000000       0.00000000 </v>
   <v>       0.00000000      -0.94713739       0.00000000 </v>
   <v>       0.00000000       0.00000000      -0.94713739 </v>
  </varray>
  <energy>
   <i name="e_fr_energy">     -8.38104780 </i>
   <i name="e_wo_entrp">     -8.33126661 </i>
   <i name="e_0_energy">     -0.14934360 </i>
  </energy>
  <time name="totalsc">    2.38    1.58</time>
  <eigenvalues>
   <array>
    <dimension dim="1">band</dimension>
    <dimension dim="2">kpoint</dimension>
    <dimension dim="3">spin</dimension>
    <field>eigene</field>
    <field>occ</field>
    <set>
     <set comment="spin 1">
      <set comment="kpoint 1">
       <r>   -3.6772    1.0000 </r>
       <r>    3.8383    1.0000 </r>
       <r>    3.8383    1.0000 </r>
       <r>    3.8383    1.0000 </r>
       <r>    4.7485    0.6667 </r>
       <r>    4.7485    0.6667 </r>
       <r>    4.7485    0.6667 </r>
       <r>   11.6216    0.0000 </r>
       <r>   11.6216    0.0000 </r>
       <r>   11.6216    0.0000 </r>
      </set>
     </set>
    </set>
   </array>
  </eigenvalues>
  <separator name="orbital magnetization" >
   <v name="MAGDIPOLOUT">      0.00000000      0.00000000      0.00000000</v>
  </separator>
  <dos>
   <i name="efermi">      4.78880248 </i>
   <total>
    <array>
     <dimension dim="1">gridpoints</dimension>
     <dimension dim="2">spin</dimension>
     <field>energy</field>
     <field>total</field>
     <field>integrated</field>
     <set>
      <set comment="spin 1">
       <r>  -5.6772   0.0000   0.0000 </r>
       <r>  -5.6129   0.0000   0.0000 </r>
       <r>  -5.5486   0.0000   0.0000 </r>
       <r>  -5.4842   0.0000   0.0000 </r>
       <r>  -5.4199   0.0000   0.0000 </r>
       <r>  -5.3556   0.0000   0.0000 </r>
       <r>  -5.2912   0.0000   0.0000 </r>
       <r>  -5.2269   0.0000   0.0000 </r>
       <r>  -5.1626   0.0000   0.0000 </r>
       <r>  -5.0983   0.0000   0.0000 </r>
       <r>  -5.0339   0.0000   0.0000 </r>
       <r>  -4.9696   0.0000   0.0000 </r>
       <r>  -4.9053   0.0000   0.0000 </r>
       <r>  -4.8409   0.0000   0.0000 </r>
       <r>  -4.7766   0.0000   0.0000 </r>
       <r>  -4.7123   0.0000   0.0000 </r>
       <r>  -4.6479   0.0000   0.0000 </r>
       <r>  -4.5836   0.0000   0.0000 </r>
       <r>  -4.5193   0.0000   0.0000 </r>
       <r>  -4.4550   0.0000   0.0000 </r>
       <r>  -4.3906  -0.0001   0.0000 </r>
       <r>  -4.3263  -0.0006   0.0000 </r>
       <r>  -4.2620  -0.0037  -0.0003 </r>
       <r>  -4.1976  -0.0181  -0.0014 </r>
       <r>  -4.1333  -0.0682  -0.0058 </r>
       <r>  -4.0690  -0.1926  -0.0182 </r>
       <r>  -4.0047  -0.3807  -0.0427 </r>
       <r>  -3.9403  -0.4036  -0.0687 </r>
       <r>  -3.8760   0.3065  -0.0490 </r>
       <r>  -3.8117   2.3216   0.1004 </r>
       <r>  -3.7473   5.3586   0.4451 </r>
       <r>  -3.6830   7.8646   0.9510 </r>
       <r>  -3.6187   8.1088   1.4727 </r>
       <r>  -3.5543   5.9077   1.8527 </r>
       <r>  -3.4900   2.8229   2.0343 </r>
       <r>  -3.4257   0.5643   2.0706 </r>
       <r>  -3.3614  -0.3505   2.0480 </r>
       <r>  -3.2970  -0.4091   2.0217 </r>
       <r>  -3.2327  -0.2243   2.0073 </r>
       <r>  -3.1684  -0.0840   2.0019 </r>
       <r>  -3.1040  -0.0235   2.0004 </r>
       <r>  -3.0397  -0.0050   2.0001 </r>
       <r>  -2.9754  -0.0009   2.0000 </r>
       <r>  -2.9111  -0.0001   2.0000 </r>
       <r>  -2.8467   0.0000   2.0000 </r>
       <r>  -2.7824   0.0000   2.0000 </r>
       <r>  -2.7181   0.0000   2.0000 </r>
       <r>  -2.6537   0.0000   2.0000 </r>
       <r>  -2.5894   0.0000   2.0000 </r>
       <r>  -2.5251   0.0000   2.0000 </r>
       <r>  -2.4608   0.0000   2.0000 </r>
       <r>  -2.3964   0.0000   2.0000 </r>
       <r>  -2.3321   0.0000   2.0000 </r>
       <r>  -2.2678   0.0000   2.0000 </r>
       <r>  -2.2034   0.0000   2.0000 </r>
       <r>  -2.1391   0.0000   2.0000 </r>
       <r>  -2.0748   0.0000   2.0000 </r>
       <r>  -2.0104   0.0000   2.0000 </r>
       <r>  -1.9461   0.0000   2.0000 </r>
       <r>  -1.8818   0.0000   2.0000 </r>
       <r>  -1.8175   0.0000   2.0000 </r>
       <r>  -1.7531   0.0000   2.0000 </r>
       <r>  -1.6888   0.0000   2.0000 </r>
       <r>  -1.6245   0.0000   2.0000 </r>
       <r>  -1.5601   0.0000   2.0000 </r>
       <r>  -1.4958   0.0000   2.0000 </r>
       <r>  -1.4315   0.0000   2.0000 </r>
       <r>  -1.3672   0.0000   2.0000 </r>
       <r>  -1.3028   0.0000   2.0000 </r>
       <r>  -1.2385   0.0000   2.0000 </r>
       <r>  -1.1742   0.0000   2.0000 </r>
       <r>  -1.1098   0.0000   2.0000 </r>
       <r>  -1.0455   0.0000   2.0000 </r>
       <r>  -0.9812   0.0000   2.0000 </r>
       <r>  -0.9168   0.0000   2.0000 </r>
       <r>  -0.8525   0.0000   2.0000 </r>
       <r>  -0.7882   0.0000   2.0000 </r>
       <r>  -0.7239   0.0000   2.0000 </r>
       <r>  -0.6595   0.0000   2.0000 </r>
       <r>  -0.5952   0.0000   2.0000 </r>
       <r>  -0.5309   0.0000   2.0000 </r>
       <r>  -0.4665   0.0000   2.0000 </r>
       <r>  -0.4022   0.0000   2.0000 </r>
       <r>  -0.3379   0.0000   2.0000 </r>
       <r>  -0.2736   0.0000   2.0000 </r>
       <r>  -0.2092   0.0000   2.0000 </r>
       <r>  -0.1449   0.0000   2.0000 </r>
       <r>  -0.0806   0.0000   2.0000 </r>
       <r>  -0.0162   0.0000   2.0000 </r>
       <r>   0.0481   0.0000   2.0000 </r>
       <r>   0.1124   0.0000   2.0000 </r>
       <r>   0.1768   0.0000   2.0000 </r>
       <r>   0.2411   0.0000   2.0000 </r>
       <r>   0.3054   0.0000   2.0000 </r>
       <r>   0.3697   0.0000   2.0000 </r>
       <r>   0.4341   0.0000   2.0000 </r>
       <r>   0.4984   0.0000   2.0000 </r>
       <r>   0.5627   0.0000   2.0000 </r>
       <r>   0.6271   0.0000   2.0000 </r>
       <r>   0.6914   0.0000   2.0000 </r>
       <r>   0.7557   0.0000   2.0000 </r>
       <r>   0.8200   0.0000   2.0000 </r>
       <r>   0.8844   0.0000   2.0000 </r>
       <r>   0.9487   0.0000   2.0000 </r>
       <r>   1.0130   0.0000   2.0000 </r>
       <r>   1.0774   0.0000   2.0000 </r>
       <r>   1.1417   0.0000   2.0000 </r>
       <r>   1.2060   0.0000   2.0000 </r>
       <r>   1.2704   0.0000   2.0000 </r>
       <r>   1.3347   0.0000   2.0000 </r>
       <r>   1.3990   0.0000   2.0000 </r>
       <r>   1.4633   0.0000   2.0000 </r>
       <r>   1.5277   0.0000   2.0000 </r>
       <r>   1.5920   0.0000   2.0000 </r>
       <r>   1.6563   0.0000   2.0000 </r>
       <r>   1.7207   0.0000   2.0000 </r>
       <r>   1.7850   0.0000   2.0000 </r>
       <r>   1.8493   0.0000   2.0000 </r>
       <r>   1.9136   0.0000   2.0000 </r>
       <r>   1.9780   0.0000   2.0000 </r>
       <r>   2.0423   0.0000   2.0000 </r>
       <r>   2.1066   0.0000   2.0000 </r>
       <r>   2.1710   0.0000   2.0000 </r>
       <r>   2.2353   0.0000   2.0000 </r>
       <r>   2.2996   0.0000   2.0000 </r>
       <r>   2.3640   0.0000   2.0000 </r>
       <r>   2.4283   0.0000   2.0000 </r>
       <r>   2.4926   0.0000   2.0000 </r>
       <r>   2.5569   0.0000   2.0000 </r>
       <r>   2.6213   0.0000   2.0000 </r>
       <r>   2.6856   0.0000   2.0000 </r>
       <r>   2.7499   0.0000   2.0000 </r>
       <r>   2.8143   0.0000   2.0000 </r>
       <r>   2.8786   0.0000   2.0000 </r>
       <r>   2.9429   0.0000   2.0000 </r>
       <r>   3.0072   0.0000   2.0000 </r>
       <r>   3.0716   0.0000   2.0000 </r>
       <r>   3.1359  -0.0003   2.0000 </r>
       <r>   3.2002  -0.0025   1.9998 </r>
       <r>   3.2646  -0.0149   1.9989 </r>
       <r>   3.3289  -0.0696   1.9944 </r>
       <r>   3.3932  -0.2497   1.9783 </r>
       <r>   3.4576  -0.6683   1.9353 </r>
       <r>   3.5219  -1.2240   1.8566 </r>
       <r>   3.5862  -1.0605   1.7884 </r>
       <r>   3.6505   1.6550   1.8948 </r>
       <r>   3.7149   8.3983   2.4351 </r>
       <r>   3.7792  17.6498   3.5705 </r>
       <r>   3.8435  24.2985   5.1336 </r>
       <r>   3.9079  23.6323   6.6538 </r>
       <r>   3.9722  16.1518   7.6929 </r>
       <r>   4.0365   7.0306   8.1452 </r>
       <r>   4.1008   0.9496   8.2063 </r>
       <r>   4.1652  -1.2169   8.1280 </r>
       <r>   4.2295  -1.2024   8.0506 </r>
       <r>   4.2938  -0.7917   7.9997 </r>
       <r>   4.3582  -0.7953   7.9485 </r>
       <r>   4.4225  -1.2083   7.8708 </r>
       <r>   4.4868  -1.2069   7.7932 </r>
       <r>   4.5512   1.0043   7.8578 </r>
       <r>   4.6155   7.1418   8.3172 </r>
       <r>   4.6798  16.2792   9.3644 </r>
       <r>   4.7441  23.6958  10.8888 </r>
       <r>   4.8085  24.2506  12.4488 </r>
       <r>   4.8728  17.5267  13.5763 </r>
       <r>   4.9371   8.2807  14.1090 </r>
       <r>   5.0015   1.5917  14.2114 </r>
       <r>   5.0658  -1.0751  14.1422 </r>
       <r>   5.1301  -1.2180  14.0638 </r>
       <r>   5.1944  -0.6609  14.0213 </r>
       <r>   5.2588  -0.2459  14.0055 </r>
       <r>   5.3231  -0.0682  14.0011 </r>
       <r>   5.3874  -0.0146  14.0002 </r>
       <r>   5.4518  -0.0025  14.0000 </r>
       <r>   5.5161  -0.0003  14.0000 </r>
       <r>   5.5804   0.0000  14.0000 </r>
       <r>   5.6448   0.0000  14.0000 </r>
       <r>   5.7091   0.0000  14.0000 </r>
       <r>   5.7734   0.0000  14.0000 </r>
       <r>   5.8377   0.0000  14.0000 </r>
       <r>   5.9021   0.0000  14.0000 </r>
       <r>   5.9664   0.0000  14.0000 </r>
       <r>   6.0307   0.0000  14.0000 </r>
       <r>   6.0951   0.0000  14.0000 </r>
       <r>   6.1594   0.0000  14.0000 </r>
       <r>   6.2237   0.0000  14.0000 </r>
       <r>   6.2880   0.0000  14.0000 </r>
       <r>   6.3524   0.0000  14.0000 </r>
       <r>   6.4167   0.0000  14.0000 </r>
       <r>   6.4810   0.0000  14.0000 </r>
       <r>   6.5454   0.0000  14.0000 </r>
       <r>   6.6097   0.0000  14.0000 </r>
       <r>   6.6740   0.0000  14.0000 </r>
       <r>   6.7383   0.0000  14.0000 </r>
       <r>   6.8027   0.0000  14.0000 </r>
       <r>   6.8670   0.0000  14.0000 </r>
       <r>   6.9313   0.0000  14.0000 </r>
       <r>   6.9957   0.0000  14.0000 </r>
       <r>   7.0600   0.0000  14.0000 </r>
       <r>   7.1243   0.0000  14.0000 </r>
       <r>   7.1887   0.0000  14.0000 </r>
       <r>   7.2530   0.0000  14.0000 </r>
       <r>   7.3173   0.0000  14.0000 </r>
       <r>   7.3816   0.0000  14.0000 </r>
       <r>   7.4460   0.0000  14.0000 </r>
       <r>   7.5103   0.0000  14.0000 </r>
       <r>   7.5746   0.0000  14.0000 </r>
       <r>   7.6390   0.0000  14.0000 </r>
       <r>   7.7033   0.0000  14.0000 </r>
       <r>   7.7676   0.0000  14.0000 </r>
       <r>   7.8319   0.0000  14.0000 </r>
       <r>   7.8963   0.0000  14.0000 </r>
       <r>   7.9606   0.0000  14.0000 </r>
       <r>   8.0249   0.0000  14.0000 </r>
       <r>   8.0893   0.0000  14.0000 </r>
       <r>   8.1536   0.0000  14.0000 </r>
       <r>   8.2179   0.0000  14.0000 </r>
       <r>   8.2823   0.0000  14.0000 </r>
       <r>   8.3466   0.0000  14.0000 </r>
       <r>   8.4109   0.0000  14.0000 </r>
       <r>   8.4752   0.0000  14.0000 </r>
       <r>   8.5396   0.0000  14.0000 </r>
       <r>   8.6039   0.0000  14.0000 </r>
       <r>   8.6682   0.0000  14.0000 </r>
       <r>   8.7326   0.0000  14.0000 </r>
       <r>   8.7969   0.0000  14.0000 </r>
       <r>   8.8612   0.0000  14.0000 </r>
       <r>   8.9255   0.0000  14.0000 </r>
       <r>   8.9899   0.0000  14.0000 </r>
       <r>   9.0542   0.0000  14.0000 </r>
       <r>   9.1185   0.0000  14.0000 </r>
       <r>   9.1829   0.0000  14.0000 </r>
       <r>   9.2472   0.0000  14.0000 </r>
       <r>   9.3115   0.0000  14.0000 </r>
       <r>   9.3759   0.0000  14.0000 </r>
       <r>   9.4402   0.0000  14.0000 </r>
       <r>   9.5045   0.0000  14.0000 </r>
       <r>   9.5688   0.0000  14.0000 </r>
       <r>   9.6332   0.0000  14.0000 </r>
       <r>   9.6975   0.0000  14.0000 </r>
       <r>   9.7618   0.0000  14.0000 </r>
       <r>   9.8262   0.0000  14.0000 </r>
       <r>   9.8905   0.0000  14.0000 </r>
       <r>   9.9548   0.0000  14.0000 </r>
       <r>  10.0191   0.0000  14.0000 </r>
       <r>  10.0835   0.0000  14.0000 </r>
       <r>  10.1478   0.0000  14.0000 </r>
       <r>  10.2121   0.0000  14.0000 </r>
       <r>  10.2765   0.0000  14.0000 </r>
       <r>  10.3408   0.0000  14.0000 </r>
       <r>  10.4051   0.0000  14.0000 </r>
       <r>  10.4695   0.0000  14.0000 </r>
       <r>  10.5338   0.0000  14.0000 </r>
       <r>  10.5981   0.0000  14.0000 </r>
       <r>  10.6624   0.0000  14.0000 </r>
       <r>  10.7268   0.0000  14.0000 </r>
       <r>  10.7911   0.0000  14.0000 </r>
       <r>  10.8554   0.0000  14.0000 </r>
       <r>  10.9198  -0.0003  14.0000 </r>
       <r>  10.9841  -0.0026  13.9998 </r>
       <r>  11.0484  -0.0151  13.9988 </r>
       <r>  11.1127  -0.0704  13.9943 </r>
       <r>  11.1771  -0.2521  13.9781 </r>
       <r>  11.2414  -0.6728  13.9348 </r>
       <r>  11.3057  -1.2274  13.8559 </r>
       <r>  11.3701  -1.0515  13.7882 </r>
       <r>  11.4344   1.6931  13.8971 </r>
       <r>  11.4987   8.4687  14.4419 </r>
       <r>  11.5631  17.7230  15.5820 </r>
       <r>  11.6274  24.3264  17.1469 </r>
       <r>  11.6917  23.5938  18.6647 </r>
       <r>  11.7560  16.0757  19.6988 </r>
       <r>  11.8204   6.9649  20.1469 </r>
       <r>  11.8847   0.9194  20.2060 </r>
       <r>  11.9490  -1.2109  20.1281 </r>
       <r>  12.0134  -1.1421  20.0547 </r>
       <r>  12.0777  -0.5777  20.0175 </r>
       <r>  12.1420  -0.2045  20.0043 </r>
       <r>  12.2063  -0.0544  20.0009 </r>
       <r>  12.2707  -0.0112  20.0001 </r>
       <r>  12.3350  -0.0018  20.0000 </r>
       <r>  12.3993  -0.0002  20.0000 </r>
       <r>  12.4637   0.0000  20.0000 </r>
       <r>  12.5280   0.0000  20.0000 </r>
       <r>  12.5923   0.0000  20.0000 </r>
       <r>  12.6567   0.0000  20.0000 </r>
       <r>  12.7210   0.0000  20.0000 </r>
       <r>  12.7853   0.0000  20.0000 </r>
       <r>  12.8496   0.0000  20.0000 </r>
       <r>  12.9140   0.0000  20.0000 </r>
       <r>  12.9783   0.0000  20.0000 </r>
       <r>  13.0426   0.0000  20.0000 </r>
       <r>  13.1070   0.0000  20.0000 </r>
       <r>  13.1713   0.0000  20.0000 </r>
       <r>  13.2356   0.0000  20.0000 </r>
       <r>  13.2999   0.0000  20.0000 </r>
       <r>  13.3643   0.0000  20.0000 </r>
       <r>  13.4286   0.0000  20.0000 </r>
       <r>  13.4929   0.0000  20.0000 </r>
       <r>  13.5573   0.0000  20.0000 </r>
       <r>  13.6216   0.0000  20.0000 </r>
      </set>
     </set>
    </array>
   </total>
  </dos>
 </calculation>
 <structure name="finalpos" >
  <crystal>
   <varray name="basis" >
    <v>       4.26789403       0.00000000       0.00000000 </v>
    <v>       0.00000000       4.26789403       0.00000000 </v>
    <v>       0.00000000       0.00000000       4.26789403 </v>
   </varray>
   <i name="volume">     77.73934604 </i>
   <varray name="rec_basis" >
    <v>       0.23430760       0.00000000       0.00000000 </v>
    <v>       0.00000000       0.23430760       0.00000000 </v>
    <v>       0.00000000       0.00000000       0.23430760 </v>
   </varray>
  </crystal>
  <varray name="positions" >
   <v>       0.00000000       0.00000000       0.00000000 </v>
   <v>       0.50000000       0.50000000       0.00000000 </v>
   <v>       0.00000000       0.50000000       0.50000000 </v>
   <v>       0.50000000       0.00000000       0.50000000 </v>
  </varray>
 </structure>
</modeling>
