    7    7  100    2
  0.2544720E+02  0.5626600E-09  0.5626600E-09  0.5626600E-09  0.5000000E-15
  1.000000000000000E-004
  CAR 
 unknown system                          
   69    2   45
 
  0.2500000E+00  0.2500000E+00  0.2500000E+00  0.2500000E+00
   1      -19.430329    -19.430070
   2      -19.419415    -19.419118
   3      -19.419415    -19.419118
   4      -19.362094    -19.361488
   5      -19.362094    -19.361488
   6      -11.424412    -11.424262
   7      -11.410645    -11.410526
   8      -11.410645    -11.410526
   9      -11.361932    -11.361834
  10      -11.347350    -11.347226
  11      -11.347350    -11.347226
  12      -11.336706    -11.336619
  13      -11.336706    -11.336618
  14      -11.315080    -11.314988
  15      -11.307241    -11.307148
  16      -11.302494    -11.302409
  17      -11.302494    -11.302409
  18      -11.289854    -11.289773
  19      -11.289853    -11.289773
  20      -11.287859    -11.287780
  21       -8.375430     -8.374033
  22       -7.056887     -7.055837
  23       -7.056887     -7.055837
  24       -6.780807     -6.779033
  25       -2.242753     -2.241645
  26       -2.242753     -2.241645
  27       -1.523219     -1.522232
  28        0.105671      0.106856
  29        0.105672      0.106857
  30        0.448275      0.449324
  31        1.406415      1.407295
  32        1.501748      1.502914
  33        2.531735      2.533433
  34        2.531735      2.533433
  35        3.862762      3.864863
  36        3.862762      3.864863
  37        5.995425      5.996546
  38        5.995425      5.996546
  39        6.097184      6.097747
  40        7.069724      7.070659
  41        8.157066      8.158391
  42        8.157066      8.158391
  43        8.540894      8.542318
  44        8.540894      8.542318
  45        9.198852      9.199671
 
 -0.2500000E+00  0.2500000E+00  0.2500000E+00  0.7500000E+00
   1      -19.430373    -19.430114
   2      -19.419649    -19.419353
   3      -19.419482    -19.419185
   4      -19.361998    -19.361391
   5      -19.361882    -19.361275
   6      -11.433642    -11.433507
   7      -11.411924    -11.411806
   8      -11.399653    -11.399521
   9      -11.361540    -11.361409
  10      -11.353769    -11.353677
  11      -11.347355    -11.347230
  12      -11.334887    -11.334796
  13      -11.334125    -11.334039
  14      -11.312568    -11.312477
  15      -11.312239    -11.312150
  16      -11.301090    -11.301005
  17      -11.298379    -11.298291
  18      -11.294836    -11.294753
  19      -11.293973    -11.293894
  20      -11.280212    -11.280134
  21       -8.400848     -8.399494
  22       -7.202118     -7.200758
  23       -7.046644     -7.045595
  24       -6.492002     -6.490429
  25       -2.801980     -2.801272
  26       -2.384183     -2.383045
  27       -1.471788     -1.470654
  28        0.354198      0.355336
  29        0.427853      0.429145
  30        0.723884      0.725409
  31        1.639213      1.640795
  32        1.832112      1.832990
  33        2.105416      2.107171
  34        2.426820      2.427727
  35        4.034391      4.037024
  36        4.195676      4.196906
  37        5.313033      5.313933
  38        5.494047      5.495047
  39        5.665935      5.667161
  40        6.799136      6.800294
  41        8.059721      8.060743
  42        8.148600      8.149666
  43        8.593053      8.594210
  44        8.756245      8.757237
  45        9.212852      9.214060
