       N       E                     dE             d eps       ncg     rms          rms(c)
DAV:   1     0.905838372433E+04    0.90584E+04   -0.31876E+05 23328   0.143E+03
DAV:   2     0.131294085857E+04   -0.77454E+04   -0.70728E+04 23328   0.319E+02
DAV:   3     0.249973974751E+02   -0.12879E+04   -0.11367E+04 23616   0.140E+02
DAV:   4    -0.529574422544E+02   -0.77955E+02   -0.76275E+02 25216   0.423E+01
DAV:   5    -0.535768539282E+02   -0.61941E+00   -0.61855E+00 25264   0.403E+00    0.286E+02
DAV:   6     0.515617499675E+03    0.56919E+03   -0.20891E+03 27808   0.132E+02    0.114E+02
DAV:   7     0.206785670674E+03   -0.30883E+03   -0.11232E+03 28248   0.881E+01    0.636E+01
DAV:   8    -0.282898532075E+03   -0.48968E+03   -0.15080E+02 28568   0.412E+01    0.584E+01
DAV:   9    -0.315499425366E+03   -0.32601E+02   -0.65369E+01 28420   0.420E+01    0.403E+01
DAV:  10    -0.457624063163E+03   -0.14212E+03   -0.35988E+02 27316   0.620E+01    0.583E+01
DAV:  11    -0.410415438070E+03    0.47209E+02   -0.71753E+01 28324   0.344E+01    0.269E+01
DAV:  12    -0.401095819428E+03    0.93196E+01   -0.21374E+01 29280   0.121E+01    0.129E+01
DAV:  13    -0.398641594650E+03    0.24542E+01   -0.42550E+00 28536   0.782E+00    0.548E+00
DAV:  14    -0.398330577082E+03    0.31102E+00   -0.40644E+00 28608   0.620E+00    0.187E+00
DAV:  15    -0.398343644077E+03   -0.13067E-01   -0.60137E-01 24512   0.240E+00    0.798E-01
DAV:  16    -0.398338215126E+03    0.54290E-02   -0.49889E-02 25504   0.127E+00    0.462E-01
DAV:  17    -0.398368244373E+03   -0.30029E-01   -0.11905E-02 26088   0.543E-01    0.245E-01
DAV:  18    -0.398339314292E+03    0.28930E-01   -0.10403E-02 27032   0.300E-01    0.202E-01
DAV:  19    -0.398339084180E+03    0.23011E-03   -0.24055E-03 24520   0.258E-01    0.135E-01
DAV:  20    -0.398338786015E+03    0.29816E-03   -0.74578E-04 25536   0.147E-01    0.331E-02
DAV:  21    -0.398338798970E+03   -0.12955E-04   -0.31788E-04 18128   0.588E-02
   1 F= -.39833880E+03 E0= -.39833880E+03  d E =0.000000E+00  mag=    -0.0031
