  31  31   0   0
  0.1706118E+02  0.8087052E-09  0.8087052E-09  0.8087052E-09  0.5000000E-15
  1.000000000000000E-004
  CAR 
 unknown system                          
     13.32149256     -4.93402806  301      7.87816494      1.00000000
     -4.934  0.0000E+00  0.0000E+00
     -4.873  0.0000E+00  0.0000E+00
     -4.812  0.0000E+00  0.0000E+00
     -4.751  0.0000E+00  0.0000E+00
     -4.691  0.0000E+00  0.0000E+00
     -4.630  0.0000E+00  0.0000E+00
     -4.569 -0.7234E-27 -0.4402E-28
     -4.508 -0.9111E-25 -0.5588E-26
     -4.447 -0.9581E-23 -0.5886E-24
     -4.386 -0.8357E-21 -0.5144E-22
     -4.326 -0.6043E-19 -0.3729E-20
     -4.265 -0.3623E-17 -0.2242E-18
     -4.204 -0.1800E-15 -0.1118E-16
     -4.143 -0.7410E-14 -0.4621E-15
     -4.082 -0.2453E-12 -0.1539E-13
     -4.021 -0.6887E-11 -0.4345E-12
     -3.960 -0.1601E-09 -0.1018E-10
     -3.900 -0.3074E-08 -0.1972E-09
     -3.839 -0.4869E-07 -0.3160E-08
     -3.778 -0.6354E-06 -0.4183E-07
     -3.717 -0.6821E-05 -0.4569E-06
     -3.656 -0.6006E-04 -0.4112E-05
     -3.595 -0.4325E-03 -0.3043E-04
     -3.534 -0.2534E-02 -0.1847E-03
     -3.474 -0.1200E-01 -0.9150E-03
     -3.413 -0.4540E-01 -0.3677E-02
     -3.352 -0.1344E+00 -0.1186E-01
     -3.291 -0.2986E+00 -0.3003E-01
     -3.230 -0.4433E+00 -0.5700E-01
     -3.169 -0.2161E+00 -0.7015E-01
     -3.108  0.9461E+00 -0.1258E-01
     -3.048  0.3325E+01  0.1897E+00
     -2.987  0.6255E+01  0.5704E+00
     -2.926  0.8186E+01  0.1069E+01
     -2.865  0.7861E+01  0.1547E+01
     -2.804  0.5501E+01  0.1882E+01
     -2.743  0.2589E+01  0.2039E+01
     -2.683  0.5167E+00  0.2071E+01
     -2.622 -0.3440E+00  0.2050E+01
     -2.561 -0.4212E+00  0.2024E+01
     -2.500 -0.2509E+00  0.2009E+01
     -2.439 -0.1119E+00  0.2002E+01
     -2.378 -0.7062E-01  0.1998E+01
     -2.317 -0.1419E+00  0.1989E+01
     -2.257 -0.3677E+00  0.1967E+01
     -2.196 -0.7412E+00  0.1922E+01
     -2.135 -0.9532E+00  0.1864E+01
     -2.074 -0.1472E+00  0.1855E+01
     -2.013  0.2793E+01  0.2025E+01
     -1.952  0.8146E+01  0.2520E+01
     -1.891  0.1437E+02  0.3394E+01
     -1.831  0.1872E+02  0.4534E+01
     -1.770  0.1936E+02  0.5712E+01
     -1.709  0.1654E+02  0.6718E+01
     -1.648  0.1190E+02  0.7442E+01
     -1.587  0.7072E+01  0.7873E+01
     -1.526  0.3133E+01  0.8063E+01
     -1.465  0.6344E+00  0.8102E+01
     -1.405 -0.4439E+00  0.8075E+01
     -1.344 -0.5943E+00  0.8039E+01
     -1.283 -0.4072E+00  0.8014E+01
     -1.222 -0.2660E+00  0.7998E+01
     -1.161 -0.3302E+00  0.7978E+01
     -1.100 -0.6162E+00  0.7940E+01
     -1.040 -0.9016E+00  0.7885E+01
     -0.979 -0.4772E+00  0.7856E+01
     -0.918  0.1759E+01  0.7963E+01
     -0.857  0.6354E+01  0.8350E+01
     -0.796  0.1207E+02  0.9084E+01
     -0.735  0.1614E+02  0.1007E+02
     -0.674  0.1661E+02  0.1108E+02
     -0.614  0.1424E+02  0.1194E+02
     -0.553  0.1135E+02  0.1263E+02
     -0.492  0.9192E+01  0.1319E+02
     -0.431  0.7220E+01  0.1363E+02
     -0.370  0.4750E+01  0.1392E+02
     -0.309  0.2173E+01  0.1405E+02
     -0.248  0.3516E+00  0.1408E+02
     -0.188 -0.4187E+00  0.1405E+02
     -0.127 -0.5265E+00  0.1402E+02
     -0.066 -0.5291E+00  0.1399E+02
     -0.005 -0.7645E+00  0.1394E+02
      0.056 -0.1171E+01  0.1387E+02
      0.117 -0.1049E+01  0.1380E+02
      0.178  0.9919E+00  0.1386E+02
      0.238  0.6207E+01  0.1424E+02
      0.299  0.1404E+02  0.1510E+02
      0.360  0.2143E+02  0.1640E+02
      0.421  0.2471E+02  0.1790E+02
      0.482  0.2282E+02  0.1929E+02
      0.543  0.1787E+02  0.2038E+02
      0.603  0.1266E+02  0.2115E+02
      0.664  0.8355E+01  0.2166E+02
      0.725  0.4822E+01  0.2195E+02
      0.786  0.2009E+01  0.2207E+02
      0.847  0.2120E+00  0.2209E+02
      0.908 -0.5325E+00  0.2206E+02
      0.969 -0.6726E+00  0.2201E+02
      1.029 -0.7908E+00  0.2197E+02
      1.090 -0.1205E+01  0.2189E+02
      1.151 -0.1641E+01  0.2179E+02
      1.212 -0.9097E+00  0.2174E+02
      1.273  0.2899E+01  0.2191E+02
      1.334  0.1103E+02  0.2259E+02
      1.395  0.2212E+02  0.2393E+02
      1.455  0.3187E+02  0.2587E+02
      1.516  0.3552E+02  0.2803E+02
      1.577  0.3129E+02  0.2994E+02
      1.638  0.2164E+02  0.3125E+02
      1.699  0.1158E+02  0.3196E+02
      1.760  0.5380E+01  0.3228E+02
      1.821  0.4188E+01  0.3254E+02
      1.881  0.5898E+01  0.3290E+02
      1.942  0.7262E+01  0.3334E+02
      2.003  0.6455E+01  0.3373E+02
      2.064  0.3971E+01  0.3397E+02
      2.125  0.1417E+01  0.3406E+02
      2.186 -0.1774E+00  0.3405E+02
      2.246 -0.8832E+00  0.3400E+02
      2.307 -0.1215E+01  0.3392E+02
      2.368 -0.1216E+01  0.3385E+02
      2.429 -0.4118E-01  0.3385E+02
      2.490  0.3561E+01  0.3406E+02
      2.551  0.9874E+01  0.3466E+02
      2.612  0.1703E+02  0.3570E+02
      2.672  0.2166E+02  0.3702E+02
      2.733  0.2131E+02  0.3831E+02
      2.794  0.1635E+02  0.3931E+02
      2.855  0.9517E+01  0.3989E+02
      2.916  0.3732E+01  0.4012E+02
      2.977  0.3822E+00  0.4014E+02
      3.038 -0.8016E+00  0.4009E+02
      3.098 -0.8502E+00  0.4004E+02
      3.159 -0.6889E+00  0.4000E+02
      3.220 -0.8207E+00  0.3995E+02
      3.281 -0.1314E+01  0.3987E+02
      3.342 -0.1641E+01  0.3977E+02
      3.403 -0.3919E+00  0.3974E+02
      3.464  0.4415E+01  0.4001E+02
      3.524  0.1378E+02  0.4085E+02
      3.585  0.2572E+02  0.4242E+02
      3.646  0.3511E+02  0.4455E+02
      3.707  0.3687E+02  0.4680E+02
      3.768  0.3021E+02  0.4863E+02
      3.829  0.1963E+02  0.4983E+02
      3.889  0.1114E+02  0.5051E+02
      3.950  0.7394E+01  0.5096E+02
      4.011  0.6655E+01  0.5136E+02
      4.072  0.5888E+01  0.5172E+02
      4.133  0.3868E+01  0.5195E+02
      4.194  0.1335E+01  0.5204E+02
      4.255 -0.7223E+00  0.5199E+02
      4.315 -0.2001E+01  0.5187E+02
      4.376 -0.2186E+01  0.5174E+02
      4.437  0.5941E-01  0.5174E+02
      4.498  0.6626E+01  0.5214E+02
      4.559  0.1769E+02  0.5322E+02
      4.620  0.2986E+02  0.5504E+02
      4.681  0.3789E+02  0.5734E+02
      4.741  0.3915E+02  0.5973E+02
      4.802  0.3584E+02  0.6191E+02
      4.863  0.3172E+02  0.6384E+02
      4.924  0.2782E+02  0.6553E+02
      4.985  0.2286E+02  0.6692E+02
      5.046  0.1679E+02  0.6794E+02
      5.107  0.1160E+02  0.6865E+02
      5.167  0.8602E+01  0.6917E+02
      5.228  0.6837E+01  0.6959E+02
      5.289  0.4793E+01  0.6988E+02
      5.350  0.2240E+01  0.7001E+02
      5.411 -0.1417E-01  0.7001E+02
      5.472 -0.1212E+01  0.6994E+02
      5.532 -0.8096E+00  0.6989E+02
      5.593  0.1844E+01  0.7000E+02
      5.654  0.6907E+01  0.7042E+02
      5.715  0.1281E+02  0.7120E+02
      5.776  0.1639E+02  0.7220E+02
      5.837  0.1529E+02  0.7313E+02
      5.898  0.1020E+02  0.7375E+02
      5.958  0.4418E+01  0.7402E+02
      6.019  0.1104E+01  0.7409E+02
      6.080  0.1360E+01  0.7417E+02
      6.141  0.4101E+01  0.7442E+02
      6.202  0.7043E+01  0.7485E+02
      6.263  0.8074E+01  0.7534E+02
      6.324  0.6518E+01  0.7574E+02
      6.384  0.3367E+01  0.7594E+02
      6.445  0.2597E+00  0.7596E+02
      6.506 -0.1513E+01  0.7586E+02
      6.567 -0.9287E+00  0.7581E+02
      6.628  0.3007E+01  0.7599E+02
      6.689  0.1035E+02  0.7662E+02
      6.750  0.1910E+02  0.7778E+02
      6.810  0.2633E+02  0.7939E+02
      6.871  0.3090E+02  0.8127E+02
      6.932  0.3385E+02  0.8333E+02
      6.993  0.3536E+02  0.8548E+02
      7.054  0.3316E+02  0.8750E+02
      7.115  0.2557E+02  0.8905E+02
      7.175  0.1472E+02  0.8995E+02
      7.236  0.5159E+01  0.9026E+02
      7.297 -0.2198E+00  0.9025E+02
      7.358 -0.1801E+01  0.9014E+02
      7.419 -0.1622E+01  0.9004E+02
      7.480 -0.1329E+01  0.8996E+02
      7.541 -0.1410E+01  0.8987E+02
      7.601 -0.1238E+01  0.8980E+02
      7.662  0.6517E+00  0.8984E+02
      7.723  0.5593E+01  0.9018E+02
      7.784  0.1310E+02  0.9098E+02
      7.845  0.2027E+02  0.9221E+02
      7.906  0.2419E+02  0.9368E+02
      7.967  0.2538E+02  0.9523E+02
      8.027  0.2752E+02  0.9690E+02
      8.088  0.3278E+02  0.9889E+02
      8.149  0.3845E+02  0.1012E+03
      8.210  0.3948E+02  0.1036E+03
      8.271  0.3361E+02  0.1057E+03
      8.332  0.2322E+02  0.1071E+03
      8.393  0.1262E+02  0.1079E+03
      8.453  0.4831E+01  0.1082E+03
      8.514  0.5692E+00  0.1082E+03
      8.575 -0.9851E+00  0.1081E+03
      8.636 -0.1108E+01  0.1081E+03
      8.697 -0.8532E+00  0.1080E+03
      8.758 -0.8257E+00  0.1080E+03
      8.818 -0.1154E+01  0.1079E+03
      8.879 -0.1353E+01  0.1078E+03
      8.940 -0.1473E+00  0.1078E+03
      9.001  0.4019E+01  0.1080E+03
      9.062  0.1133E+02  0.1087E+03
      9.123  0.1928E+02  0.1099E+03
      9.184  0.2424E+02  0.1114E+03
      9.244  0.2510E+02  0.1129E+03
      9.305  0.2445E+02  0.1144E+03
      9.366  0.2486E+02  0.1159E+03
      9.427  0.2516E+02  0.1174E+03
      9.488  0.2208E+02  0.1188E+03
      9.549  0.1483E+02  0.1197E+03
      9.610  0.6256E+01  0.1201E+03
      9.670 -0.2336E+00  0.1201E+03
      9.731 -0.3076E+01  0.1199E+03
      9.792 -0.1766E+01  0.1198E+03
      9.853  0.4575E+01  0.1200E+03
      9.914  0.1621E+02  0.1210E+03
      9.975  0.3036E+02  0.1229E+03
     10.035  0.4110E+02  0.1254E+03
     10.096  0.4294E+02  0.1280E+03
     10.157  0.3497E+02  0.1301E+03
     10.218  0.2148E+02  0.1314E+03
     10.279  0.9013E+01  0.1320E+03
     10.340  0.2747E+01  0.1321E+03
     10.401  0.4466E+01  0.1324E+03
     10.461  0.1206E+02  0.1331E+03
     10.522  0.2031E+02  0.1344E+03
     10.583  0.2360E+02  0.1358E+03
     10.644  0.1979E+02  0.1370E+03
     10.705  0.1179E+02  0.1377E+03
     10.766  0.5143E+01  0.1380E+03
     10.827  0.3846E+01  0.1383E+03
     10.887  0.7785E+01  0.1388E+03
     10.948  0.1323E+02  0.1396E+03
     11.009  0.1574E+02  0.1405E+03
     11.070  0.1359E+02  0.1413E+03
     11.131  0.9010E+01  0.1419E+03
     11.192  0.5758E+01  0.1422E+03
     11.253  0.5561E+01  0.1426E+03
     11.313  0.6989E+01  0.1430E+03
     11.374  0.7470E+01  0.1435E+03
     11.435  0.5895E+01  0.1438E+03
     11.496  0.3192E+01  0.1440E+03
     11.557  0.9082E+00  0.1441E+03
     11.618 -0.2247E+00  0.1441E+03
     11.678 -0.4448E+00  0.1440E+03
     11.739 -0.2989E+00  0.1440E+03
     11.800 -0.1344E+00  0.1440E+03
     11.861 -0.4540E-01  0.1440E+03
     11.922 -0.1200E-01  0.1440E+03
     11.983 -0.2535E-02  0.1440E+03
     12.044 -0.4325E-03  0.1440E+03
     12.104 -0.6006E-04  0.1440E+03
     12.165 -0.6821E-05  0.1440E+03
     12.226 -0.6354E-06  0.1440E+03
     12.287 -0.4869E-07  0.1440E+03
     12.348 -0.3074E-08  0.1440E+03
     12.409 -0.1601E-09  0.1440E+03
     12.470 -0.6882E-11  0.1440E+03
     12.530 -0.2481E-12  0.1440E+03
     12.591 -0.7298E-14  0.1440E+03
     12.652  0.0000E+00  0.1440E+03
     12.713  0.0000E+00  0.1440E+03
     12.774  0.0000E+00  0.1440E+03
     12.835  0.0000E+00  0.1440E+03
     12.896  0.0000E+00  0.1440E+03
     12.956  0.0000E+00  0.1440E+03
     13.017  0.0000E+00  0.1440E+03
     13.078  0.0000E+00  0.1440E+03
     13.139  0.0000E+00  0.1440E+03
     13.200  0.0000E+00  0.1440E+03
     13.261  0.0000E+00  0.1440E+03
     13.321  0.0000E+00  0.1440E+03
