   31   31    1    1
  0.1706118E+02  0.8087052E-09  0.8087052E-09  0.8087052E-09  0.5000000E-15
  1.000000000000000E-004
  CAR 
 unknown system                          
   93    1   72
 
  0.2500000E+00  0.2500000E+00  0.2500000E+00  0.1000000E+01
   1       -2.934028
   2       -1.858389
   3       -1.858389
   4       -1.687068
   5       -0.743330
   6       -0.743330
   7       -0.498041
   8        0.360151
   9        0.360151
  10        0.426168
  11        0.604566
  12        1.428308
  13        1.428308
  14        1.457631
  15        1.562739
  16        1.562739
  17        1.907363
  18        2.634156
  19        2.634156
  20        2.751806
  21        3.595135
  22        3.595135
  23        3.695702
  24        3.697406
  25        3.697406
  26        3.988539
  27        4.622448
  28        4.622448
  29        4.654844
  30        4.716705
  31        4.716705
  32        4.910354
  33        4.910354
  34        4.914521
  35        5.173886
  36        5.763600
  37        5.763600
  38        6.221711
  39        6.777304
  40        6.793602
  41        6.793602
  42        6.970645
  43        7.022101
  44        7.030672
  45        7.030672
  46        7.835482
  47        7.881492
  48        7.881492
  49        8.096230
  50        8.096230
  51        8.153907
  52        8.195803
  53        8.195804
  54        8.318539
  55        9.149337
  56        9.149337
  57        9.181422
  58        9.408759
  59        9.408759
  60        9.434494
  61        9.987197
  62       10.003822
  63       10.003822
  64       10.052517
  65       10.128680
  66       10.128681
  67       10.532293
  68       10.532295
  69       10.582634
  70       10.975614
  71       10.976589
  72       11.321493
