<?xml version="1.0" encoding="ISO-8859-1"?>
<modeling>
 <generator>
  <i name="program" type="string">vasp </i>
  <i name="version" type="string">5.2.2  </i>
  <i name="subversion" type="string">15Apr09 complex  parallel </i>
  <i name="platform" type="string">LinuxIFC </i>
  <i name="date" type="string">2017 03 17 </i>
  <i name="time" type="string">11:28:21 </i>
 </generator>
 <incar>
  <i type="string" name="PREC">accurate</i>
  <i type="int" name="IALGO">    48</i>
  <i type="int" name="IBRION">    -1</i>
  <i name="EDIFFG">      0.05000000</i>
  <i type="int" name="NSW">     0</i>
  <i type="int" name="ISIF">     2</i>
  <i name="ENCUT">    300.00000000</i>
  <i name="NELECT">     93.00000000</i>
  <i type="int" name="ISMEAR">     1</i>
  <i name="SIGMA">      0.20000000</i>
  <i type="logical" name="LWAVE"> F  </i>
  <i type="logical" name="LCHARG"> F  </i>
  <i type="logical" name="LPEAD"> F  </i>
  <i type="logical" name="LCALCPOL"> F  </i>
  <i type="logical" name="LCALCEPS"> F  </i>
  <v name="EFIELD_PEAD">      0.00000000      0.00000000      0.00000000</v>
  <i type="logical" name="LEFG"> F  </i>
 </incar>
 <kpoints>
  <generation param="Monkhorst-Pack">
   <v type="int" name="divisions">       2        2        2 </v>
   <v name="usershift">      0.00000000       0.00000000       0.00000000 </v>
   <v name="genvec1">      0.50000000       0.00000000       0.00000000 </v>
   <v name="genvec2">      0.00000000       0.50000000       0.00000000 </v>
   <v name="genvec3">      0.00000000       0.00000000       0.50000000 </v>
   <v name="shift">      0.50000000       0.50000000       0.50000000 </v>
  </generation>
  <varray name="kpointlist" >
   <v>       0.25000000       0.25000000       0.25000000 </v>
  </varray>
  <varray name="weights" >
   <v>       1.00000000 </v>
  </varray>
 </kpoints>
 <parameters>
  <separator name="general" >
   <i type="string" name="SYSTEM">unknown system</i>
   <i type="logical" name="LCOMPAT"> F  </i>
  </separator>
  <separator name="electronic" >
   <i type="string" name="PREC">accura</i>
   <i name="ENMAX">    300.00000000</i>
   <i name="ENAUG">    291.05200000</i>
   <i name="EDIFF">      0.00010000</i>
   <i type="int" name="IALGO">    48</i>
   <i type="int" name="IWAVPR">    10</i>
   <i type="int" name="NBANDS">    72</i>
   <i name="NELECT">     93.00000000</i>
   <separator name="electronic smearing" >
    <i type="int" name="ISMEAR">     1</i>
    <i name="SIGMA">      0.20000000</i>
   </separator>
   <separator name="electronic projectors" >
    <i type="logical" name="LREAL"> F  </i>
    <v name="ROPT">      0.00000000</v>
    <i type="int" name="LMAXPAW">  -100</i>
    <i type="int" name="LMAXMIX">     2</i>
   </separator>
   <separator name="electronic startup" >
    <i type="int" name="ISTART">     0</i>
    <i type="int" name="ICHARG">     2</i>
    <i type="int" name="INIWAV">     1</i>
   </separator>
   <separator name="electronic spin" >
    <i type="int" name="ISPIN">     1</i>
    <i type="logical" name="LNONCOLLINEAR"> F  </i>
    <v name="MAGMOM">      1.00000000      1.00000000      1.00000000      1.00000000      1.00000000      1.00000000      1.00000000      1.00000000      1.00000000      1.00000000      1.00000000      1.00000000      1.00000000      1.00000000      1.00000000      1.00000000      1.00000000      1.00000000      1.00000000      1.00000000
      1.00000000      1.00000000      1.00000000      1.00000000      1.00000000      1.00000000      1.00000000      1.00000000      1.00000000      1.00000000      1.00000000</v>
    <i name="NUPDOWN">     -1.00000000</i>
    <i type="logical" name="LSORBIT"> F  </i>
    <v name="SAXIS">      0.00000000      0.00000000      1.00000000</v>
    <i type="logical" name="LSPIRAL"> F  </i>
    <v name="QSPIRAL">      0.00000000      0.00000000      0.00000000</v>
    <i type="logical" name="LZEROZ"> F  </i>
   </separator>
   <separator name="electronic exchange-correlation" >
    <i type="logical" name="LASPH"> F  </i>
    <i type="logical" name="LMETAGGA"> F  </i>
   </separator>
   <separator name="electronic convergence" >
    <i type="int" name="NELM">    60</i>
    <i type="int" name="NELMDL">   -12</i>
    <i type="int" name="NELMIN">     2</i>
    <i name="ENINI">    300.00000000</i>
    <separator name="electronic convergence detail" >
     <i type="logical" name="LDIAG"> T  </i>
     <i name="WEIMIN">      0.00000000</i>
     <i name="EBREAK">      0.00000040</i>
     <i name="DEPER">      0.30000000</i>
     <i type="int" name="NRMM">     4</i>
     <i name="TIME">      0.40000000</i>
    </separator>
   </separator>
   <separator name="electronic mixer" >
    <i name="AMIX">      0.40000000</i>
    <i name="BMIX">      1.00000000</i>
    <i name="AMIN">      0.10000000</i>
    <i name="AMIX_MAG">      1.60000000</i>
    <i name="BMIX_MAG">      1.00000000</i>
    <separator name="electronic mixer details" >
     <i type="int" name="IMIX">     4</i>
     <i type="int" name="MAXMIX">   -45</i>
     <i name="WC">    100.00000000</i>
     <i type="int" name="INIMIX">     1</i>
     <i type="int" name="MIXPRE">     1</i>
     <i type="int" name="MREMOVE">     5</i>
    </separator>
   </separator>
   <separator name="electronic dipolcorrection" >
    <i type="logical" name="LDIPOL"> F  </i>
    <i type="logical" name="LMONO"> F  </i>
    <i type="int" name="IDIPOL">     0</i>
    <i name="EPSILON">      1.00000000</i>
    <v name="DIPOL">   -100.00000000   -100.00000000   -100.00000000</v>
    <i name="EFIELD">      0.00000000</i>
   </separator>
  </separator>
  <separator name="grids" >
   <i type="int" name="NGX">    48</i>
   <i type="int" name="NGY">    48</i>
   <i type="int" name="NGZ">    48</i>
   <i type="int" name="NGXF">    96</i>
   <i type="int" name="NGYF">    96</i>
   <i type="int" name="NGZF">    96</i>
   <i type="logical" name="ADDGRID"> F  </i>
  </separator>
  <separator name="ionic" >
   <i type="int" name="NSW">     0</i>
   <i type="int" name="IBRION">    -1</i>
   <i type="int" name="ISIF">     2</i>
   <i name="PSTRESS">      0.00000000</i>
   <i name="EDIFFG">      0.05000000</i>
   <i type="int" name="NFREE">     0</i>
   <i name="POTIM">      0.50000000</i>
   <i name="SMASS">     -3.00000000</i>
  </separator>
  <separator name="ionic md" >
   <i name="TEBEG">      0.00010000</i>
   <i name="TEEND">      0.00010000</i>
   <i type="int" name="NBLOCK">     1</i>
   <i type="int" name="KBLOCK">     1</i>
   <i type="int" name="NPACO">   256</i>
   <i name="APACO">     16.00000000</i>
  </separator>
  <separator name="symmetry" >
   <i type="int" name="ISYM">     2</i>
   <i name="SYMPREC">      0.00001000</i>
  </separator>
  <separator name="dos" >
   <i type="logical" name="LORBIT"> F  </i>
   <v name="RWIGS">     -1.00000000</v>
   <i type="int" name="NEDOS">   301</i>
   <i name="EMIN">     10.00000000</i>
   <i name="EMAX">    -10.00000000</i>
   <i name="EFERMI">      0.00000000</i>
  </separator>
  <separator name="writing" >
   <i type="int" name="NWRITE">     2</i>
   <i type="logical" name="LWAVE"> F  </i>
   <i type="logical" name="LCHARG"> F  </i>
   <i type="logical" name="LPARD"> F  </i>
   <i type="logical" name="LVTOT"> F  </i>
   <i type="logical" name="LELF"> F  </i>
   <i type="logical" name="LOPTICS"> F  </i>
   <v name="STM">      0.00000000      0.00000000      0.00000000      0.00000000      0.00000000</v>
  </separator>
  <separator name="performance" >
   <i type="int" name="NPAR">    12</i>
   <i type="int" name="NSIM">     4</i>
   <i type="int" name="NBLK">    32</i>
   <i type="logical" name="LPLANE"> T  </i>
   <i type="logical" name="LSCALAPACK"> F  </i>
   <i type="logical" name="LSCAAWARE"> F  </i>
   <i type="logical" name="LSCALU"> F  </i>
   <i type="logical" name="LASYNC"> F  </i>
  </separator>
  <separator name="miscellaneous" >
   <i type="int" name="IDIOT">     3</i>
   <i type="logical" name="LMUSIC"> F  </i>
   <v name="POMASS">     26.98200000</v>
   <i type="logical" name="LCORR"> T  </i>
  </separator>
  <i type="logical" name="LREAL_COMPAT"> F  </i>
  <i type="logical" name="GGA_COMPAT"> T  </i>
  <i type="logical" name="LBERRY"> F  </i>
  <i type="int" name="ICORELEVEL">     0</i>
  <i type="logical" name="LDAU"> F  </i>
  <i type="int" name="I_CONSTRAINED_M">     0</i>
  <separator name="electronic exchange-correlation" >
   <i type="string" name="GGA">--</i>
   <i type="int" name="VOSKOWN">     0</i>
   <i type="logical" name="LHFCALC"> F  </i>
   <i type="logical" name="LHFONE"> F  </i>
   <i type="logical" name="LRHFCALC"> F  </i>
   <i type="logical" name="LTHOMAS"> F  </i>
   <i type="logical" name="LMODELHF"> F  </i>
   <i name="ENCUTFOCK">      0.00000000</i>
   <i name="ENCUT4O">     -1.00000000</i>
   <i type="int" name="EXXOEP">     0</i>
   <i type="int" name="FOURORBIT">     0</i>
   <i name="AEXX">      0.00000000</i>
   <i name="HFALPHA">      0.00000000</i>
   <i name="ALDAX">      1.00000000</i>
   <i name="AGGAX">      1.00000000</i>
   <i name="ALDAC">      1.00000000</i>
   <i name="AGGAC">      1.00000000</i>
   <i type="int" name="NKREDX">     1</i>
   <i type="int" name="NKREDY">     1</i>
   <i type="int" name="NKREDZ">     1</i>
   <i type="logical" name="SHIFTRED"> F  </i>
   <i type="logical" name="ODDONLY"> F  </i>
   <i type="logical" name="EVENONLY"> F  </i>
   <i type="int" name="LMAXFOCK">     0</i>
   <i type="int" name="NMAXFOCKAE">     0</i>
   <i name="HFSCREEN">      0.00000000</i>
   <i name="HFSCREENC">      0.00000000</i>
  </separator>
  <separator name="model GW" >
   <i type="int" name="MODEL_GW">     0</i>
   <i name="MODEL_EPS0">     10.23670678</i>
   <i name="MODEL_ALPHA">      1.00000000</i>
  </separator>
  <separator name="linear response parameters" >
   <i type="logical" name="LEPSILON"> F  </i>
   <i type="logical" name="LRPA"> F  </i>
   <i type="logical" name="LNABLA"> F  </i>
   <i type="logical" name="LVEL"> F  </i>
   <i type="int" name="KINTER">     0</i>
   <i name="CSHIFT">      0.10000000</i>
   <i name="OMEGAMAX">     -1.00000000</i>
  </separator>
  <separator name="orbital magnetization" >
   <i type="logical" name="ORBITALMAG"> F  </i>
   <i type="logical" name="LMAGBLOCH"> F  </i>
   <i type="logical" name="LCHIMAG"> F  </i>
   <i type="logical" name="LGAUGE"> T  </i>
   <i type="int" name="MAGATOM">     0</i>
   <v name="MAGDIPOL">      0.00000000      0.00000000      0.00000000</v>
   <v name="AVECCONST">      0.00000000      0.00000000      0.00000000</v>
  </separator>
  <separator name="response functions" >
   <i type="logical" name="LRPA"> T  </i>
   <i type="logical" name="LTCTE"> F  </i>
   <i type="logical" name="LTETE"> F  </i>
   <i type="logical" name="L2ORDER"> F  </i>
   <i type="logical" name="LGWLF"> F  </i>
   <i name="ENCUTGW">    200.00000000</i>
   <i name="ENCUTGWSOFT">     -2.00000000</i>
   <i name="ENCUTLF">     -1.00000000</i>
   <i type="int" name="LMAXMP2">    -1</i>
   <i name="SCISSOR">      0.00000000</i>
   <i type="int" name="NOMEGA">     0</i>
   <i type="int" name="NOMEGAR">     0</i>
   <i type="int" name="NBANDSGW">    -1</i>
   <i type="int" name="NBANDSLF">    -1</i>
   <i type="int" name="NELM">     1</i>
   <i type="int" name="DIM">     3</i>
   <i type="int" name="ANTIRES">     0</i>
   <i type="logical" name="LUSEW"> F  </i>
   <i name="OMEGAMAX">    -30.00000000</i>
   <i name="OMEGATL">   -200.00000000</i>
   <i type="int" name="OMEGAGRID">     0</i>
   <i name="CSHIFT">     -0.10000000</i>
   <i type="logical" name="SELFENERGY"> F  </i>
   <i type="logical" name="LSPECTRAL"> F  </i>
   <i type="logical" name="ODDONLYGW"> F  </i>
   <i type="logical" name="EVENONLYGW"> F  </i>
   <i type="int" name="NKREDLFX">     1</i>
   <i type="int" name="NKREDLFY">     1</i>
   <i type="int" name="NKREDLFZ">     1</i>
   <i type="int" name="MAXMEM">  1024</i>
   <i type="int" name="TELESCOPE">     0</i>
  </separator>
 </parameters>
 <atominfo>
  <atoms>      31 </atoms>
  <types>       1 </types>
  <array name="atoms" >
   <dimension dim="1">ion</dimension>
   <field type="string">element</field>
   <field type="int">atomtype</field>
   <set>
    <rc><c>Al</c><c>   1</c></rc>
    <rc><c>Al</c><c>   1</c></rc>
    <rc><c>Al</c><c>   1</c></rc>
    <rc><c>Al</c><c>   1</c></rc>
    <rc><c>Al</c><c>   1</c></rc>
    <rc><c>Al</c><c>   1</c></rc>
    <rc><c>Al</c><c>   1</c></rc>
    <rc><c>Al</c><c>   1</c></rc>
    <rc><c>Al</c><c>   1</c></rc>
    <rc><c>Al</c><c>   1</c></rc>
    <rc><c>Al</c><c>   1</c></rc>
    <rc><c>Al</c><c>   1</c></rc>
    <rc><c>Al</c><c>   1</c></rc>
    <rc><c>Al</c><c>   1</c></rc>
    <rc><c>Al</c><c>   1</c></rc>
    <rc><c>Al</c><c>   1</c></rc>
    <rc><c>Al</c><c>   1</c></rc>
    <rc><c>Al</c><c>   1</c></rc>
    <rc><c>Al</c><c>   1</c></rc>
    <rc><c>Al</c><c>   1</c></rc>
    <rc><c>Al</c><c>   1</c></rc>
    <rc><c>Al</c><c>   1</c></rc>
    <rc><c>Al</c><c>   1</c></rc>
    <rc><c>Al</c><c>   1</c></rc>
    <rc><c>Al</c><c>   1</c></rc>
    <rc><c>Al</c><c>   1</c></rc>
    <rc><c>Al</c><c>   1</c></rc>
    <rc><c>Al</c><c>   1</c></rc>
    <rc><c>Al</c><c>   1</c></rc>
    <rc><c>Al</c><c>   1</c></rc>
    <rc><c>Al</c><c>   1</c></rc>
   </set>
  </array>
  <array name="atomtypes" >
   <dimension dim="1">type</dimension>
   <field type="int">atomspertype</field>
   <field type="string">element</field>
   <field>mass</field>
   <field>valence</field>
   <field type="string">pseudopotential</field>
   <set>
    <rc><c>  31</c><c>Al</c><c>     26.98200000</c><c>      3.00000000</c><c> PAW_PBE Al 04Jan2001                   </c></rc>
   </set>
  </array>
 </atominfo>
 <structure name="initialpos" >
  <crystal>
   <varray name="basis" >
    <v>       8.08705200       0.00000000       0.00000000 </v>
    <v>       0.00000000       8.08705200       0.00000000 </v>
    <v>       0.00000000       0.00000000       8.08705200 </v>
   </varray>
   <i name="volume">    528.89651690 </i>
   <varray name="rec_basis" >
    <v>       0.12365445       0.00000000       0.00000000 </v>
    <v>       0.00000000       0.12365445       0.00000000 </v>
    <v>       0.00000000       0.00000000       0.12365445 </v>
   </varray>
  </crystal>
  <varray name="positions" >
   <v>       0.00000000       0.00000000       0.00000000 </v>
   <v>       0.24944000       0.00000000       0.24944000 </v>
   <v>       0.24944000       0.24944000       0.00000000 </v>
   <v>       0.00000000       0.24944000       0.24944000 </v>
   <v>       0.50000000       0.00000000       0.00000000 </v>
   <v>       0.75056000       0.00000000       0.24944000 </v>
   <v>       0.75056000       0.24944000       0.00000000 </v>
   <v>       0.50000000       0.25326900       0.25326900 </v>
   <v>       0.00000000       0.50000000       0.00000000 </v>
   <v>       0.25326900       0.50000000       0.25326900 </v>
   <v>       0.24944000       0.75056000       0.00000000 </v>
   <v>       0.00000000       0.75056000       0.24944000 </v>
   <v>       0.50000000       0.50000000       0.00000000 </v>
   <v>       0.74673100       0.50000000       0.25326900 </v>
   <v>       0.75056000       0.75056000       0.00000000 </v>
   <v>       0.50000000       0.74673100       0.25326900 </v>
   <v>       0.00000000       0.00000000       0.50000000 </v>
   <v>       0.24944000       0.00000000       0.75056000 </v>
   <v>       0.25326900       0.25326900       0.50000000 </v>
   <v>       0.00000000       0.24944000       0.75056000 </v>
   <v>       0.50000000       0.00000000       0.50000000 </v>
   <v>       0.75056000       0.00000000       0.75056000 </v>
   <v>       0.74673100       0.25326900       0.50000000 </v>
   <v>       0.50000000       0.25326900       0.74673100 </v>
   <v>       0.00000000       0.50000000       0.50000000 </v>
   <v>       0.25326900       0.50000000       0.74673100 </v>
   <v>       0.25326900       0.74673100       0.50000000 </v>
   <v>       0.00000000       0.75056000       0.75056000 </v>
   <v>       0.74673100       0.50000000       0.74673100 </v>
   <v>       0.74673100       0.74673100       0.50000000 </v>
   <v>       0.50000000       0.74673100       0.74673100 </v>
  </varray>
 </structure>
 <calculation>
  <scstep>
   <time name="diag">    0.15    0.15</time>
   <time name="diis">    0.34    0.34</time>
   <time name="orth">    0.01    0.01</time>
   <time name="total">    0.67    0.67</time>
   <energy>
    <i name="alphaZ">     -6.10292983 </i>
    <i name="ewald">  -2232.10820766 </i>
    <i name="hartreedc">    -17.02602536 </i>
    <i name="XCdc">   -814.85627415 </i>
    <i name="pawpsdc">   1102.18190231 </i>
    <i name="pawaedc">   -111.56847430 </i>
    <i name="eentropy">     -0.04540637 </i>
    <i name="bandstr">    653.02264897 </i>
    <i name="atom">   1659.66634407 </i>
    <i name="e_fr_energy">    233.16357768 </i>
    <i name="e_wo_entrp">    233.20898406 </i>
    <i name="e_0_energy">    233.17871314 </i>
   </energy>
  </scstep>
  <scstep>
   <time name="diag">    0.15    0.15</time>
   <time name="diis">    0.34    0.34</time>
   <time name="orth">    0.01    0.01</time>
   <time name="total">    0.50    0.50</time>
   <energy>
    <i name="e_fr_energy">    -38.27513914 </i>
    <i name="e_wo_entrp">    -38.20959002 </i>
    <i name="e_0_energy">    -38.25328943 </i>
   </energy>
  </scstep>
  <scstep>
   <time name="diag">    0.15    0.15</time>
   <time name="diis">    0.33    0.33</time>
   <time name="orth">    0.01    0.01</time>
   <time name="total">    0.49    0.50</time>
   <energy>
    <i name="e_fr_energy">    -95.72016990 </i>
    <i name="e_wo_entrp">    -95.68816769 </i>
    <i name="e_0_energy">    -95.70950249 </i>
   </energy>
  </scstep>
  <scstep>
   <time name="diag">    0.15    0.15</time>
   <time name="diis">    0.34    0.34</time>
   <time name="orth">    0.01    0.01</time>
   <time name="total">    0.50    0.50</time>
   <energy>
    <i name="e_fr_energy">   -107.97276031 </i>
    <i name="e_wo_entrp">   -107.94438006 </i>
    <i name="e_0_energy">   -107.96330023 </i>
   </energy>
  </scstep>
  <scstep>
   <time name="diag">    0.15    0.15</time>
   <time name="diis">    0.34    0.34</time>
   <time name="orth">    0.01    0.01</time>
   <time name="total">    0.50    0.51</time>
   <energy>
    <i name="e_fr_energy">   -112.98984592 </i>
    <i name="e_wo_entrp">   -112.90693033 </i>
    <i name="e_0_energy">   -112.96220739 </i>
   </energy>
  </scstep>
  <scstep>
   <time name="diag">    0.15    0.15</time>
   <time name="diis">    0.34    0.34</time>
   <time name="orth">    0.01    0.01</time>
   <time name="total">    0.50    0.50</time>
   <energy>
    <i name="e_fr_energy">   -114.61145809 </i>
    <i name="e_wo_entrp">   -114.52542673 </i>
    <i name="e_0_energy">   -114.58278097 </i>
   </energy>
  </scstep>
  <scstep>
   <time name="diag">    0.15    0.15</time>
   <time name="diis">    0.34    0.34</time>
   <time name="orth">    0.01    0.01</time>
   <time name="total">    0.50    0.50</time>
   <energy>
    <i name="e_fr_energy">   -115.12973132 </i>
    <i name="e_wo_entrp">   -115.06322113 </i>
    <i name="e_0_energy">   -115.10756126 </i>
   </energy>
  </scstep>
  <scstep>
   <time name="diag">    0.15    0.15</time>
   <time name="diis">    0.34    0.34</time>
   <time name="orth">    0.01    0.01</time>
   <time name="total">    0.50    0.50</time>
   <energy>
    <i name="e_fr_energy">   -115.31614930 </i>
    <i name="e_wo_entrp">   -115.25892289 </i>
    <i name="e_0_energy">   -115.29707383 </i>
   </energy>
  </scstep>
  <scstep>
   <time name="diag">    0.15    0.15</time>
   <time name="diis">    0.83    0.83</time>
   <time name="orth">    0.01    0.01</time>
   <time name="total">    0.99    0.99</time>
   <energy>
    <i name="e_fr_energy">   -115.41456775 </i>
    <i name="e_wo_entrp">   -115.36354683 </i>
    <i name="e_0_energy">   -115.39756078 </i>
   </energy>
  </scstep>
  <scstep>
   <time name="diag">    0.15    0.15</time>
   <time name="diis">    0.78    0.78</time>
   <time name="orth">    0.01    0.01</time>
   <time name="total">    0.94    0.94</time>
   <energy>
    <i name="e_fr_energy">   -115.42704779 </i>
    <i name="e_wo_entrp">   -115.37647282 </i>
    <i name="e_0_energy">   -115.41018947 </i>
   </energy>
  </scstep>
  <scstep>
   <time name="diag">    0.15    0.15</time>
   <time name="diis">    0.66    0.66</time>
   <time name="orth">    0.01    0.01</time>
   <time name="total">    0.82    0.82</time>
   <energy>
    <i name="e_fr_energy">   -115.42740982 </i>
    <i name="e_wo_entrp">   -115.37690610 </i>
    <i name="e_0_energy">   -115.41057524 </i>
   </energy>
  </scstep>
  <scstep>
   <time name="diag">    0.15    0.15</time>
   <time name="diis">    0.58    0.58</time>
   <time name="orth">    0.01    0.01</time>
   <time name="total">    0.87    0.87</time>
   <energy>
    <i name="e_fr_energy">   -115.42744911 </i>
    <i name="e_wo_entrp">   -115.37694559 </i>
    <i name="e_0_energy">   -115.41061460 </i>
   </energy>
  </scstep>
  <scstep>
   <time name="diag">    0.15    0.15</time>
   <time name="diis">    0.73    0.73</time>
   <time name="orth">    0.01    0.01</time>
   <time name="total">    1.18    1.18</time>
   <energy>
    <i name="e_fr_energy">   -114.89394072 </i>
    <i name="e_wo_entrp">   -114.84428888 </i>
    <i name="e_0_energy">   -114.87739011 </i>
   </energy>
  </scstep>
  <scstep>
   <time name="diag">    0.15    0.15</time>
   <time name="diis">    0.72    0.72</time>
   <time name="orth">    0.01    0.01</time>
   <time name="total">    1.17    1.17</time>
   <energy>
    <i name="e_fr_energy">   -114.63030535 </i>
    <i name="e_wo_entrp">   -114.58039628 </i>
    <i name="e_0_energy">   -114.61366899 </i>
   </energy>
  </scstep>
  <scstep>
   <time name="diag">    0.15    0.15</time>
   <time name="diis">    0.77    0.77</time>
   <time name="orth">    0.01    0.01</time>
   <time name="total">    1.23    1.23</time>
   <energy>
    <i name="e_fr_energy">   -114.60358656 </i>
    <i name="e_wo_entrp">   -114.55328314 </i>
    <i name="e_0_energy">   -114.58681875 </i>
   </energy>
  </scstep>
  <scstep>
   <time name="diag">    0.15    0.15</time>
   <time name="diis">    0.74    0.74</time>
   <time name="orth">    0.01    0.01</time>
   <time name="total">    1.20    1.20</time>
   <energy>
    <i name="e_fr_energy">   -114.60288013 </i>
    <i name="e_wo_entrp">   -114.55252078 </i>
    <i name="e_0_energy">   -114.58609368 </i>
   </energy>
  </scstep>
  <scstep>
   <time name="diag">    0.15    0.15</time>
   <time name="diis">    0.59    0.59</time>
   <time name="orth">    0.01    0.01</time>
   <time name="total">    0.91    0.91</time>
   <energy>
    <i name="alphaZ">     -6.10292983 </i>
    <i name="ewald">  -2232.10820766 </i>
    <i name="hartreedc">    -19.21900491 </i>
    <i name="XCdc">   -811.44297826 </i>
    <i name="pawpsdc">   1106.81593536 </i>
    <i name="pawaedc">   -116.61510806 </i>
    <i name="eentropy">     -0.05028881 </i>
    <i name="bandstr">    304.45332411 </i>
    <i name="atom">   1659.66634407 </i>
    <i name="e_fr_energy">   -114.60291400 </i>
    <i name="e_wo_entrp">   -114.55262519 </i>
    <i name="e_0_energy">   -114.58615107 </i>
   </energy>
  </scstep>
  <structure>
   <crystal>
    <varray name="basis" >
     <v>       8.08705200       0.00000000       0.00000000 </v>
     <v>       0.00000000       8.08705200       0.00000000 </v>
     <v>       0.00000000       0.00000000       8.08705200 </v>
    </varray>
    <i name="volume">    528.89651690 </i>
    <varray name="rec_basis" >
     <v>       0.12365445       0.00000000       0.00000000 </v>
     <v>       0.00000000       0.12365445       0.00000000 </v>
     <v>       0.00000000       0.00000000       0.12365445 </v>
    </varray>
   </crystal>
   <varray name="positions" >
    <v>       0.00000000       0.00000000       0.00000000 </v>
    <v>       0.24944000       0.00000000       0.24944000 </v>
    <v>       0.24944000       0.24944000       0.00000000 </v>
    <v>       0.00000000       0.24944000       0.24944000 </v>
    <v>       0.50000000       0.00000000       0.00000000 </v>
    <v>       0.75056000       0.00000000       0.24944000 </v>
    <v>       0.75056000       0.24944000       0.00000000 </v>
    <v>       0.50000000       0.25326900       0.25326900 </v>
    <v>       0.00000000       0.50000000       0.00000000 </v>
    <v>       0.25326900       0.50000000       0.25326900 </v>
    <v>       0.24944000       0.75056000       0.00000000 </v>
    <v>       0.00000000       0.75056000       0.24944000 </v>
    <v>       0.50000000       0.50000000       0.00000000 </v>
    <v>       0.74673100       0.50000000       0.25326900 </v>
    <v>       0.75056000       0.75056000       0.00000000 </v>
    <v>       0.50000000       0.74673100       0.25326900 </v>
    <v>       0.00000000       0.00000000       0.50000000 </v>
    <v>       0.24944000       0.00000000       0.75056000 </v>
    <v>       0.25326900       0.25326900       0.50000000 </v>
    <v>       0.00000000       0.24944000       0.75056000 </v>
    <v>       0.50000000       0.00000000       0.50000000 </v>
    <v>       0.75056000       0.00000000       0.75056000 </v>
    <v>       0.74673100       0.25326900       0.50000000 </v>
    <v>       0.50000000       0.25326900       0.74673100 </v>
    <v>       0.00000000       0.50000000       0.50000000 </v>
    <v>       0.25326900       0.50000000       0.74673100 </v>
    <v>       0.25326900       0.74673100       0.50000000 </v>
    <v>       0.00000000       0.75056000       0.75056000 </v>
    <v>       0.74673100       0.50000000       0.74673100 </v>
    <v>       0.74673100       0.74673100       0.50000000 </v>
    <v>       0.50000000       0.74673100       0.74673100 </v>
   </varray>
  </structure>
  <varray name="forces" >
   <v>       0.00000000       0.00000000       0.00000000 </v>
   <v>       0.02314656       0.00000000       0.02314656 </v>
   <v>       0.02314656       0.02314656       0.00000000 </v>
   <v>       0.00000000       0.02314656       0.02314656 </v>
   <v>       0.00000000       0.00000000       0.00000000 </v>
   <v>      -0.02314656       0.00000000       0.02314656 </v>
   <v>      -0.02314656       0.02314656       0.00000000 </v>
   <v>       0.00000000      -0.02572093      -0.02572093 </v>
   <v>       0.00000000       0.00000000       0.00000000 </v>
   <v>      -0.02572093       0.00000000      -0.02572093 </v>
   <v>       0.02314656      -0.02314656       0.00000000 </v>
   <v>       0.00000000      -0.02314656       0.02314656 </v>
   <v>       0.00000000       0.00000000       0.00000000 </v>
   <v>       0.02572093       0.00000000      -0.02572093 </v>
   <v>      -0.02314656      -0.02314656       0.00000000 </v>
   <v>       0.00000000       0.02572093      -0.02572093 </v>
   <v>       0.00000000       0.00000000       0.00000000 </v>
   <v>       0.02314656       0.00000000      -0.02314656 </v>
   <v>      -0.02572093      -0.02572093       0.00000000 </v>
   <v>       0.00000000       0.02314656      -0.02314656 </v>
   <v>       0.00000000       0.00000000       0.00000000 </v>
   <v>      -0.02314656       0.00000000      -0.02314656 </v>
   <v>       0.02572093      -0.02572093       0.00000000 </v>
   <v>       0.00000000      -0.02572093       0.02572093 </v>
   <v>       0.00000000       0.00000000       0.00000000 </v>
   <v>      -0.02572093       0.00000000       0.02572093 </v>
   <v>      -0.02572093       0.02572093       0.00000000 </v>
   <v>       0.00000000      -0.02314656      -0.02314656 </v>
   <v>       0.02572093       0.00000000       0.02572093 </v>
   <v>       0.02572093       0.02572093       0.00000000 </v>
   <v>       0.00000000       0.02572093       0.02572093 </v>
  </varray>
  <varray name="stress" >
   <v>      -7.87610486       0.00000000       0.00000000 </v>
   <v>       0.00000000      -7.87610486       0.00000000 </v>
   <v>       0.00000000       0.00000000      -7.87610486 </v>
  </varray>
  <energy>
   <i name="e_fr_energy">   -114.60291400 </i>
   <i name="e_wo_entrp">   -114.58615107 </i>
   <i name="e_0_energy">     -0.05028881 </i>
  </energy>
  <time name="totalsc">   14.69   14.73</time>
  <eigenvalues>
   <array>
    <dimension dim="1">band</dimension>
    <dimension dim="2">kpoint</dimension>
    <dimension dim="3">spin</dimension>
    <field>eigene</field>
    <field>occ</field>
    <set>
     <set comment="spin 1">
      <set comment="kpoint 1">
       <r>   -2.9340    1.0000 </r>
       <r>   -1.8584    1.0000 </r>
       <r>   -1.8584    1.0000 </r>
       <r>   -1.6871    1.0000 </r>
       <r>   -0.7433    1.0000 </r>
       <r>   -0.7433    1.0000 </r>
       <r>   -0.4980    1.0000 </r>
       <r>    0.3602    1.0000 </r>
       <r>    0.3602    1.0000 </r>
       <r>    0.4262    1.0000 </r>
       <r>    0.6046    1.0000 </r>
       <r>    1.4283    1.0000 </r>
       <r>    1.4283    1.0000 </r>
       <r>    1.4576    1.0000 </r>
       <r>    1.5627    1.0000 </r>
       <r>    1.5627    1.0000 </r>
       <r>    1.9074    1.0000 </r>
       <r>    2.6342    1.0000 </r>
       <r>    2.6342    1.0000 </r>
       <r>    2.7518    1.0000 </r>
       <r>    3.5951    1.0000 </r>
       <r>    3.5951    1.0000 </r>
       <r>    3.6957    1.0000 </r>
       <r>    3.6974    1.0000 </r>
       <r>    3.6974    1.0000 </r>
       <r>    3.9885    1.0000 </r>
       <r>    4.6224    1.0000 </r>
       <r>    4.6224    1.0000 </r>
       <r>    4.6548    1.0000 </r>
       <r>    4.7167    1.0000 </r>
       <r>    4.7167    1.0000 </r>
       <r>    4.9104    1.0000 </r>
       <r>    4.9104    1.0000 </r>
       <r>    4.9145    1.0000 </r>
       <r>    5.1739    1.0000 </r>
       <r>    5.7636    1.0000 </r>
       <r>    5.7636    1.0000 </r>
       <r>    6.2217    1.0000 </r>
       <r>    6.7773    1.0000 </r>
       <r>    6.7936    1.0000 </r>
       <r>    6.7936    1.0000 </r>
       <r>    6.9706    1.0000 </r>
       <r>    7.0221    1.0000 </r>
       <r>    7.0307    1.0000 </r>
       <r>    7.0307    1.0000 </r>
       <r>    7.8355    0.6761 </r>
       <r>    7.8815    0.4859 </r>
       <r>    7.8815    0.4859 </r>
       <r>    8.0962   -0.0321 </r>
       <r>    8.0962   -0.0321 </r>
       <r>    8.1539   -0.0325 </r>
       <r>    8.1958   -0.0236 </r>
       <r>    8.1958   -0.0236 </r>
       <r>    8.3185   -0.0039 </r>
       <r>    9.1493    0.0000 </r>
       <r>    9.1493    0.0000 </r>
       <r>    9.1814    0.0000 </r>
       <r>    9.4088    0.0000 </r>
       <r>    9.4088    0.0000 </r>
       <r>    9.4345    0.0000 </r>
       <r>    9.9872    0.0000 </r>
       <r>   10.0038    0.0000 </r>
       <r>   10.0038    0.0000 </r>
       <r>   10.0525    0.0000 </r>
       <r>   10.1287    0.0000 </r>
       <r>   10.1287    0.0000 </r>
       <r>   10.5323    0.0000 </r>
       <r>   10.5323    0.0000 </r>
       <r>   10.5826    0.0000 </r>
       <r>   10.9756    0.0000 </r>
       <r>   10.9766    0.0000 </r>
       <r>   11.3215    0.0000 </r>
      </set>
     </set>
    </set>
   </array>
  </eigenvalues>
  <separator name="orbital magnetization" >
   <v name="MAGDIPOLOUT">      0.00000000      0.00000000      0.00000000</v>
  </separator>
  <dos>
   <i name="efermi">      7.87816494 </i>
   <total>
    <array>
     <dimension dim="1">gridpoints</dimension>
     <dimension dim="2">spin</dimension>
     <field>energy</field>
     <field>total</field>
     <field>integrated</field>
     <set>
      <set comment="spin 1">
       <r>  -4.9340   0.0000   0.0000 </r>
       <r>  -4.8732   0.0000   0.0000 </r>
       <r>  -4.8123   0.0000   0.0000 </r>
       <r>  -4.7515   0.0000   0.0000 </r>
       <r>  -4.6906   0.0000   0.0000 </r>
       <r>  -4.6298   0.0000   0.0000 </r>
       <r>  -4.5689   0.0000   0.0000 </r>
       <r>  -4.5081   0.0000   0.0000 </r>
       <r>  -4.4472   0.0000   0.0000 </r>
       <r>  -4.3864   0.0000   0.0000 </r>
       <r>  -4.3255   0.0000   0.0000 </r>
       <r>  -4.2647   0.0000   0.0000 </r>
       <r>  -4.2038   0.0000   0.0000 </r>
       <r>  -4.1430   0.0000   0.0000 </r>
       <r>  -4.0821   0.0000   0.0000 </r>
       <r>  -4.0213   0.0000   0.0000 </r>
       <r>  -3.9604   0.0000   0.0000 </r>
       <r>  -3.8995   0.0000   0.0000 </r>
       <r>  -3.8387   0.0000   0.0000 </r>
       <r>  -3.7778   0.0000   0.0000 </r>
       <r>  -3.7170   0.0000   0.0000 </r>
       <r>  -3.6561  -0.0001   0.0000 </r>
       <r>  -3.5953  -0.0004   0.0000 </r>
       <r>  -3.5344  -0.0025  -0.0002 </r>
       <r>  -3.4736  -0.0120  -0.0009 </r>
       <r>  -3.4127  -0.0454  -0.0037 </r>
       <r>  -3.3519  -0.1344  -0.0119 </r>
       <r>  -3.2910  -0.2986  -0.0300 </r>
       <r>  -3.2302  -0.4433  -0.0570 </r>
       <r>  -3.1693  -0.2161  -0.0702 </r>
       <r>  -3.1085   0.9461  -0.0126 </r>
       <r>  -3.0476   3.3249   0.1897 </r>
       <r>  -2.9868   6.2552   0.5704 </r>
       <r>  -2.9259   8.1865   1.0685 </r>
       <r>  -2.8651   7.8610   1.5469 </r>
       <r>  -2.8042   5.5007   1.8816 </r>
       <r>  -2.7434   2.5888   2.0392 </r>
       <r>  -2.6825   0.5167   2.0706 </r>
       <r>  -2.6217  -0.3440   2.0497 </r>
       <r>  -2.5608  -0.4212   2.0240 </r>
       <r>  -2.5000  -0.2509   2.0088 </r>
       <r>  -2.4391  -0.1119   2.0020 </r>
       <r>  -2.3783  -0.0706   1.9977 </r>
       <r>  -2.3174  -0.1419   1.9890 </r>
       <r>  -2.2566  -0.3677   1.9667 </r>
       <r>  -2.1957  -0.7412   1.9215 </r>
       <r>  -2.1348  -0.9532   1.8635 </r>
       <r>  -2.0740  -0.1472   1.8546 </r>
       <r>  -2.0131   2.7929   2.0245 </r>
       <r>  -1.9523   8.1459   2.5202 </r>
       <r>  -1.8914  14.3665   3.3945 </r>
       <r>  -1.8306  18.7228   4.5338 </r>
       <r>  -1.7697  19.3573   5.7117 </r>
       <r>  -1.7089  16.5381   6.7181 </r>
       <r>  -1.6480  11.9007   7.4422 </r>
       <r>  -1.5872   7.0716   7.8726 </r>
       <r>  -1.5263   3.1328   8.0632 </r>
       <r>  -1.4655   0.6344   8.1018 </r>
       <r>  -1.4046  -0.4439   8.0748 </r>
       <r>  -1.3438  -0.5943   8.0386 </r>
       <r>  -1.2829  -0.4072   8.0138 </r>
       <r>  -1.2221  -0.2660   7.9977 </r>
       <r>  -1.1612  -0.3302   7.9776 </r>
       <r>  -1.1004  -0.6162   7.9401 </r>
       <r>  -1.0395  -0.9016   7.8852 </r>
       <r>  -0.9787  -0.4772   7.8562 </r>
       <r>  -0.9178   1.7595   7.9632 </r>
       <r>  -0.8570   6.3537   8.3499 </r>
       <r>  -0.7961  12.0656   9.0841 </r>
       <r>  -0.7353  16.1374  10.0661 </r>
       <r>  -0.6744  16.6142  11.0771 </r>
       <r>  -0.6136  14.2398  11.9436 </r>
       <r>  -0.5527  11.3498  12.6342 </r>
       <r>  -0.4919   9.1916  13.1936 </r>
       <r>  -0.4310   7.2202  13.6329 </r>
       <r>  -0.3701   4.7503  13.9220 </r>
       <r>  -0.3093   2.1732  14.0542 </r>
       <r>  -0.2484   0.3516  14.0756 </r>
       <r>  -0.1876  -0.4187  14.0502 </r>
       <r>  -0.1267  -0.5265  14.0181 </r>
       <r>  -0.0659  -0.5291  13.9859 </r>
       <r>  -0.0050  -0.7645  13.9394 </r>
       <r>   0.0558  -1.1705  13.8682 </r>
       <r>   0.1167  -1.0493  13.8043 </r>
       <r>   0.1775   0.9919  13.8647 </r>
       <r>   0.2384   6.2075  14.2424 </r>
       <r>   0.2992  14.0439  15.0970 </r>
       <r>   0.3601  21.4265  16.4008 </r>
       <r>   0.4209  24.7127  17.9047 </r>
       <r>   0.4818  22.8185  19.2932 </r>
       <r>   0.5426  17.8669  20.3804 </r>
       <r>   0.6035  12.6565  21.1506 </r>
       <r>   0.6643   8.3547  21.6590 </r>
       <r>   0.7252   4.8224  21.9524 </r>
       <r>   0.7860   2.0086  22.0747 </r>
       <r>   0.8469   0.2120  22.0876 </r>
       <r>   0.9077  -0.5325  22.0552 </r>
       <r>   0.9686  -0.6726  22.0142 </r>
       <r>   1.0294  -0.7908  21.9661 </r>
       <r>   1.0903  -1.2055  21.8928 </r>
       <r>   1.1511  -1.6413  21.7929 </r>
       <r>   1.2120  -0.9097  21.7375 </r>
       <r>   1.2728   2.8989  21.9139 </r>
       <r>   1.3337  11.0299  22.5851 </r>
       <r>   1.3946  22.1203  23.9312 </r>
       <r>   1.4554  31.8699  25.8705 </r>
       <r>   1.5163  35.5223  28.0321 </r>
       <r>   1.5771  31.2865  29.9360 </r>
       <r>   1.6380  21.6415  31.2529 </r>
       <r>   1.6988  11.5796  31.9575 </r>
       <r>   1.7597   5.3797  32.2849 </r>
       <r>   1.8205   4.1878  32.5397 </r>
       <r>   1.8814   5.8985  32.8987 </r>
       <r>   1.9422   7.2622  33.3406 </r>
       <r>   2.0031   6.4547  33.7333 </r>
       <r>   2.0639   3.9708  33.9750 </r>
       <r>   2.1248   1.4165  34.0612 </r>
       <r>   2.1856  -0.1774  34.0504 </r>
       <r>   2.2465  -0.8832  33.9966 </r>
       <r>   2.3073  -1.2148  33.9227 </r>
       <r>   2.3682  -1.2160  33.8487 </r>
       <r>   2.4290  -0.0412  33.8462 </r>
       <r>   2.4899   3.5612  34.0629 </r>
       <r>   2.5507   9.8739  34.6638 </r>
       <r>   2.6116  17.0320  35.7002 </r>
       <r>   2.6724  21.6620  37.0184 </r>
       <r>   2.7333  21.3065  38.3149 </r>
       <r>   2.7941  16.3472  39.3096 </r>
       <r>   2.8550   9.5172  39.8888 </r>
       <r>   2.9158   3.7318  40.1159 </r>
       <r>   2.9767   0.3822  40.1391 </r>
       <r>   3.0375  -0.8016  40.0904 </r>
       <r>   3.0984  -0.8502  40.0386 </r>
       <r>   3.1593  -0.6889  39.9967 </r>
       <r>   3.2201  -0.8207  39.9468 </r>
       <r>   3.2810  -1.3138  39.8668 </r>
       <r>   3.3418  -1.6407  39.7670 </r>
       <r>   3.4027  -0.3919  39.7431 </r>
       <r>   3.4635   4.4149  40.0118 </r>
       <r>   3.5244  13.7805  40.8503 </r>
       <r>   3.5852  25.7163  42.4152 </r>
       <r>   3.6461  35.1102  44.5517 </r>
       <r>   3.7069  36.8728  46.7955 </r>
       <r>   3.7678  30.2076  48.6337 </r>
       <r>   3.8286  19.6254  49.8279 </r>
       <r>   3.8895  11.1383  50.5057 </r>
       <r>   3.9503   7.3938  50.9557 </r>
       <r>   4.0112   6.6549  51.3606 </r>
       <r>   4.0720   5.8875  51.7189 </r>
       <r>   4.1329   3.8676  51.9542 </r>
       <r>   4.1937   1.3351  52.0355 </r>
       <r>   4.2546  -0.7223  51.9915 </r>
       <r>   4.3154  -2.0013  51.8697 </r>
       <r>   4.3763  -2.1862  51.7367 </r>
       <r>   4.4371   0.0594  51.7403 </r>
       <r>   4.4980   6.6264  52.1435 </r>
       <r>   4.5588  17.6871  53.2198 </r>
       <r>   4.6197  29.8627  55.0370 </r>
       <r>   4.6805  37.8918  57.3428 </r>
       <r>   4.7414  39.1526  59.7253 </r>
       <r>   4.8022  35.8367  61.9060 </r>
       <r>   4.8631  31.7151  63.8360 </r>
       <r>   4.9240  27.8211  65.5289 </r>
       <r>   4.9848  22.8582  66.9199 </r>
       <r>   5.0457  16.7864  67.9414 </r>
       <r>   5.1065  11.6040  68.6475 </r>
       <r>   5.1674   8.6021  69.1709 </r>
       <r>   5.2282   6.8375  69.5870 </r>
       <r>   5.2891   4.7933  69.8787 </r>
       <r>   5.3499   2.2399  70.0150 </r>
       <r>   5.4108  -0.0142  70.0141 </r>
       <r>   5.4716  -1.2121  69.9404 </r>
       <r>   5.5325  -0.8096  69.8911 </r>
       <r>   5.5933   1.8436  70.0033 </r>
       <r>   5.6542   6.9071  70.4236 </r>
       <r>   5.7150  12.8084  71.2030 </r>
       <r>   5.7759  16.3907  72.2004 </r>
       <r>   5.8367  15.2857  73.1306 </r>
       <r>   5.8976  10.2033  73.7515 </r>
       <r>   5.9584   4.4177  74.0203 </r>
       <r>   6.0193   1.1043  74.0875 </r>
       <r>   6.0801   1.3602  74.1703 </r>
       <r>   6.1410   4.1006  74.4198 </r>
       <r>   6.2018   7.0427  74.8484 </r>
       <r>   6.2627   8.0739  75.3397 </r>
       <r>   6.3235   6.5179  75.7363 </r>
       <r>   6.3844   3.3674  75.9412 </r>
       <r>   6.4452   0.2597  75.9570 </r>
       <r>   6.5061  -1.5130  75.8649 </r>
       <r>   6.5669  -0.9287  75.8084 </r>
       <r>   6.6278   3.0075  75.9914 </r>
       <r>   6.6887  10.3494  76.6212 </r>
       <r>   6.7495  19.1043  77.7837 </r>
       <r>   6.8104  26.3339  79.3862 </r>
       <r>   6.8712  30.9031  81.2667 </r>
       <r>   6.9321  33.8525  83.3267 </r>
       <r>   6.9929  35.3590  85.4783 </r>
       <r>   7.0538  33.1607  87.4962 </r>
       <r>   7.1146  25.5672  89.0520 </r>
       <r>   7.1755  14.7190  89.9477 </r>
       <r>   7.2363   5.1594  90.2617 </r>
       <r>   7.2972  -0.2198  90.2483 </r>
       <r>   7.3580  -1.8010  90.1387 </r>
       <r>   7.4189  -1.6223  90.0400 </r>
       <r>   7.4797  -1.3291  89.9591 </r>
       <r>   7.5406  -1.4104  89.8733 </r>
       <r>   7.6014  -1.2379  89.7980 </r>
       <r>   7.6623   0.6517  89.8376 </r>
       <r>   7.7231   5.5934  90.1780 </r>
       <r>   7.7840  13.0999  90.9751 </r>
       <r>   7.8448  20.2712  92.2087 </r>
       <r>   7.9057  24.1925  93.6808 </r>
       <r>   7.9665  25.3820  95.2254 </r>
       <r>   8.0274  27.5229  96.9002 </r>
       <r>   8.0882  32.7813  98.8950 </r>
       <r>   8.1491  38.4549 101.2350 </r>
       <r>   8.2099  39.4758 103.6372 </r>
       <r>   8.2708  33.6075 105.6823 </r>
       <r>   8.3317  23.2176 107.0951 </r>
       <r>   8.3925  12.6191 107.8630 </r>
       <r>   8.4534   4.8311 108.1570 </r>
       <r>   8.5142   0.5692 108.1916 </r>
       <r>   8.5751  -0.9851 108.1317 </r>
       <r>   8.6359  -1.1075 108.0643 </r>
       <r>   8.6968  -0.8532 108.0124 </r>
       <r>   8.7576  -0.8257 107.9621 </r>
       <r>   8.8185  -1.1538 107.8919 </r>
       <r>   8.8793  -1.3535 107.8095 </r>
       <r>   8.9402  -0.1473 107.8006 </r>
       <r>   9.0010   4.0192 108.0452 </r>
       <r>   9.0619  11.3267 108.7344 </r>
       <r>   9.1227  19.2812 109.9077 </r>
       <r>   9.1836  24.2404 111.3828 </r>
       <r>   9.2444  25.1035 112.9104 </r>
       <r>   9.3053  24.4526 114.3983 </r>
       <r>   9.3661  24.8583 115.9110 </r>
       <r>   9.4270  25.1565 117.4418 </r>
       <r>   9.4878  22.0774 118.7853 </r>
       <r>   9.5487  14.8303 119.6877 </r>
       <r>   9.6095   6.2558 120.0684 </r>
       <r>   9.6704  -0.2336 120.0542 </r>
       <r>   9.7312  -3.0765 119.8670 </r>
       <r>   9.7921  -1.7662 119.7595 </r>
       <r>   9.8529   4.5749 120.0379 </r>
       <r>   9.9138  16.2081 121.0242 </r>
       <r>   9.9746  30.3593 122.8716 </r>
       <r>  10.0355  41.0995 125.3726 </r>
       <r>  10.0964  42.9417 127.9856 </r>
       <r>  10.1572  34.9665 130.1134 </r>
       <r>  10.2181  21.4770 131.4203 </r>
       <r>  10.2789   9.0128 131.9688 </r>
       <r>  10.3398   2.7468 132.1359 </r>
       <r>  10.4006   4.4658 132.4077 </r>
       <r>  10.4615  12.0605 133.1416 </r>
       <r>  10.5223  20.3074 134.3773 </r>
       <r>  10.5832  23.6038 135.8136 </r>
       <r>  10.6440  19.7926 137.0181 </r>
       <r>  10.7049  11.7870 137.7353 </r>
       <r>  10.7657   5.1429 138.0483 </r>
       <r>  10.8266   3.8460 138.2823 </r>
       <r>  10.8874   7.7853 138.7561 </r>
       <r>  10.9483  13.2318 139.5612 </r>
       <r>  11.0091  15.7355 140.5188 </r>
       <r>  11.0700  13.5885 141.3457 </r>
       <r>  11.1308   9.0101 141.8939 </r>
       <r>  11.1917   5.7581 142.2443 </r>
       <r>  11.2525   5.5614 142.5827 </r>
       <r>  11.3134   6.9888 143.0080 </r>
       <r>  11.3742   7.4696 143.4626 </r>
       <r>  11.4351   5.8948 143.8213 </r>
       <r>  11.4959   3.1921 144.0155 </r>
       <r>  11.5568   0.9082 144.0708 </r>
       <r>  11.6176  -0.2247 144.0571 </r>
       <r>  11.6785  -0.4448 144.0300 </r>
       <r>  11.7393  -0.2989 144.0119 </r>
       <r>  11.8002  -0.1344 144.0037 </r>
       <r>  11.8611  -0.0454 144.0009 </r>
       <r>  11.9219  -0.0120 144.0002 </r>
       <r>  11.9828  -0.0025 144.0000 </r>
       <r>  12.0436  -0.0004 144.0000 </r>
       <r>  12.1045  -0.0001 144.0000 </r>
       <r>  12.1653   0.0000 144.0000 </r>
       <r>  12.2262   0.0000 144.0000 </r>
       <r>  12.2870   0.0000 144.0000 </r>
       <r>  12.3479   0.0000 144.0000 </r>
       <r>  12.4087   0.0000 144.0000 </r>
       <r>  12.4696   0.0000 144.0000 </r>
       <r>  12.5304   0.0000 144.0000 </r>
       <r>  12.5913   0.0000 144.0000 </r>
       <r>  12.6521   0.0000 144.0000 </r>
       <r>  12.7130   0.0000 144.0000 </r>
       <r>  12.7738   0.0000 144.0000 </r>
       <r>  12.8347   0.0000 144.0000 </r>
       <r>  12.8955   0.0000 144.0000 </r>
       <r>  12.9564   0.0000 144.0000 </r>
       <r>  13.0172   0.0000 144.0000 </r>
       <r>  13.0781   0.0000 144.0000 </r>
       <r>  13.1389   0.0000 144.0000 </r>
       <r>  13.1998   0.0000 144.0000 </r>
       <r>  13.2606   0.0000 144.0000 </r>
       <r>  13.3215   0.0000 144.0000 </r>
      </set>
     </set>
    </array>
   </total>
  </dos>
 </calculation>
 <structure name="finalpos" >
  <crystal>
   <varray name="basis" >
    <v>       8.08705200       0.00000000       0.00000000 </v>
    <v>       0.00000000       8.08705200       0.00000000 </v>
    <v>       0.00000000       0.00000000       8.08705200 </v>
   </varray>
   <i name="volume">    528.89651690 </i>
   <varray name="rec_basis" >
    <v>       0.12365445       0.00000000       0.00000000 </v>
    <v>       0.00000000       0.12365445       0.00000000 </v>
    <v>       0.00000000       0.00000000       0.12365445 </v>
   </varray>
  </crystal>
  <varray name="positions" >
   <v>       0.00000000       0.00000000       0.00000000 </v>
   <v>       0.24944000       0.00000000       0.24944000 </v>
   <v>       0.24944000       0.24944000       0.00000000 </v>
   <v>       0.00000000       0.24944000       0.24944000 </v>
   <v>       0.50000000       0.00000000       0.00000000 </v>
   <v>       0.75056000       0.00000000       0.24944000 </v>
   <v>       0.75056000       0.24944000       0.00000000 </v>
   <v>       0.50000000       0.25326900       0.25326900 </v>
   <v>       0.00000000       0.50000000       0.00000000 </v>
   <v>       0.25326900       0.50000000       0.25326900 </v>
   <v>       0.24944000       0.75056000       0.00000000 </v>
   <v>       0.00000000       0.75056000       0.24944000 </v>
   <v>       0.50000000       0.50000000       0.00000000 </v>
   <v>       0.74673100       0.50000000       0.25326900 </v>
   <v>       0.75056000       0.75056000       0.00000000 </v>
   <v>       0.50000000       0.74673100       0.25326900 </v>
   <v>       0.00000000       0.00000000       0.50000000 </v>
   <v>       0.24944000       0.00000000       0.75056000 </v>
   <v>       0.25326900       0.25326900       0.50000000 </v>
   <v>       0.00000000       0.24944000       0.75056000 </v>
   <v>       0.50000000       0.00000000       0.50000000 </v>
   <v>       0.75056000       0.00000000       0.75056000 </v>
   <v>       0.74673100       0.25326900       0.50000000 </v>
   <v>       0.50000000       0.25326900       0.74673100 </v>
   <v>       0.00000000       0.50000000       0.50000000 </v>
   <v>       0.25326900       0.50000000       0.74673100 </v>
   <v>       0.25326900       0.74673100       0.50000000 </v>
   <v>       0.00000000       0.75056000       0.75056000 </v>
   <v>       0.74673100       0.50000000       0.74673100 </v>
   <v>       0.74673100       0.74673100       0.50000000 </v>
   <v>       0.50000000       0.74673100       0.74673100 </v>
  </varray>
 </structure>
</modeling>
