    3    3  191    1
  0.1429167E+02  0.3500000E-09  0.3500000E-09  0.3500000E-09  0.5000000E-15
  1.000000000000000E-004
  CAR 
 unknown system                          
    9    1    8
 
  0.2500000E+00  0.2500000E+00  0.2500000E+00  0.1000000E+01
   1       -0.842509
   2        4.914466
   3        5.150894
   4        5.150894
   5       10.521993
   6       10.521994
   7       11.421250
   8       16.284805
