<?xml version="1.0" encoding="ISO-8859-1"?>
<modeling>
 <generator>
  <i name="program" type="string">vasp </i>
  <i name="version" type="string">5.2.2  </i>
  <i name="subversion" type="string">15Apr09 complex  parallel </i>
  <i name="platform" type="string">LinuxIFC </i>
  <i name="date" type="string">2013 08 21 </i>
  <i name="time" type="string">16:10:44 </i>
 </generator>
 <incar>
  <i type="string" name="PREC">accurate</i>
  <i type="int" name="IBRION">     2</i>
  <i type="int" name="NSW">   191</i>
  <i type="int" name="ISIF">     2</i>
  <i name="ENCUT">    360.65550000</i>
  <i type="int" name="ISMEAR">     1</i>
  <i name="SIGMA">      0.20000000</i>
  <i type="logical" name="LWAVE"> F  </i>
  <i type="logical" name="LCHARG"> F  </i>
  <i type="logical" name="LPEAD"> F  </i>
  <i type="logical" name="LCALCPOL"> F  </i>
  <i type="logical" name="LCALCEPS"> F  </i>
  <v name="EFIELD_PEAD">      0.00000000      0.00000000      0.00000000</v>
  <i type="logical" name="LEFG"> F  </i>
 </incar>
 <kpoints>
  <generation param="Monkhorst-Pack">
   <v type="int" name="divisions">       2        2        2 </v>
   <v name="usershift">      0.00000000       0.00000000       0.00000000 </v>
   <v name="genvec1">      0.50000000       0.00000000       0.00000000 </v>
   <v name="genvec2">      0.00000000       0.50000000       0.00000000 </v>
   <v name="genvec3">      0.00000000       0.00000000       0.50000000 </v>
   <v name="shift">      0.50000000       0.50000000       0.50000000 </v>
  </generation>
  <varray name="kpointlist" >
   <v>       0.25000000       0.25000000       0.25000000 </v>
  </varray>
  <varray name="weights" >
   <v>       1.00000000 </v>
  </varray>
 </kpoints>
 <parameters>
  <separator name="general" >
   <i type="string" name="SYSTEM">unknown system</i>
   <i type="logical" name="LCOMPAT"> F  </i>
  </separator>
  <separator name="electronic" >
   <i type="string" name="PREC">accura</i>
   <i name="ENMAX">    360.65550000</i>
   <i name="ENAUG">    291.05200000</i>
   <i name="EDIFF">      0.00010000</i>
   <i type="int" name="IALGO">    38</i>
   <i type="int" name="IWAVPR">    11</i>
   <i type="int" name="NBANDS">     8</i>
   <i name="NELECT">      9.00000000</i>
   <separator name="electronic smearing" >
    <i type="int" name="ISMEAR">     1</i>
    <i name="SIGMA">      0.20000000</i>
   </separator>
   <separator name="electronic projectors" >
    <i type="logical" name="LREAL"> F  </i>
    <v name="ROPT">      0.00000000</v>
    <i type="int" name="LMAXPAW">  -100</i>
    <i type="int" name="LMAXMIX">     2</i>
   </separator>
   <separator name="electronic startup" >
    <i type="int" name="ISTART">     0</i>
    <i type="int" name="ICHARG">     2</i>
    <i type="int" name="INIWAV">     1</i>
   </separator>
   <separator name="electronic spin" >
    <i type="int" name="ISPIN">     1</i>
    <i type="logical" name="LNONCOLLINEAR"> F  </i>
    <v name="MAGMOM">      1.00000000      1.00000000      1.00000000</v>
    <i name="NUPDOWN">     -1.00000000</i>
    <i type="logical" name="LSORBIT"> F  </i>
    <v name="SAXIS">      0.00000000      0.00000000      1.00000000</v>
    <i type="logical" name="LSPIRAL"> F  </i>
    <v name="QSPIRAL">      0.00000000      0.00000000      0.00000000</v>
    <i type="logical" name="LZEROZ"> F  </i>
   </separator>
   <separator name="electronic exchange-correlation" >
    <i type="logical" name="LASPH"> F  </i>
    <i type="logical" name="LMETAGGA"> F  </i>
   </separator>
   <separator name="electronic convergence" >
    <i type="int" name="NELM">    60</i>
    <i type="int" name="NELMDL">    -5</i>
    <i type="int" name="NELMIN">     2</i>
    <i name="ENINI">    360.65550000</i>
    <separator name="electronic convergence detail" >
     <i type="logical" name="LDIAG"> T  </i>
     <i name="WEIMIN">      0.00100000</i>
     <i name="EBREAK">      0.00000313</i>
     <i name="DEPER">      0.30000000</i>
     <i type="int" name="NRMM">     4</i>
     <i name="TIME">      0.40000000</i>
    </separator>
   </separator>
   <separator name="electronic mixer" >
    <i name="AMIX">      0.40000000</i>
    <i name="BMIX">      1.00000000</i>
    <i name="AMIN">      0.10000000</i>
    <i name="AMIX_MAG">      1.60000000</i>
    <i name="BMIX_MAG">      1.00000000</i>
    <separator name="electronic mixer details" >
     <i type="int" name="IMIX">     4</i>
     <i type="int" name="MAXMIX">   -45</i>
     <i name="WC">    100.00000000</i>
     <i type="int" name="INIMIX">     1</i>
     <i type="int" name="MIXPRE">     1</i>
     <i type="int" name="MREMOVE">     5</i>
    </separator>
   </separator>
   <separator name="electronic dipolcorrection" >
    <i type="logical" name="LDIPOL"> F  </i>
    <i type="logical" name="LMONO"> F  </i>
    <i type="int" name="IDIPOL">     0</i>
    <i name="EPSILON">      1.00000000</i>
    <v name="DIPOL">   -100.00000000   -100.00000000   -100.00000000</v>
    <i name="EFIELD">      0.00000000</i>
   </separator>
  </separator>
  <separator name="grids" >
   <i type="int" name="NGX">    24</i>
   <i type="int" name="NGY">    24</i>
   <i type="int" name="NGZ">    24</i>
   <i type="int" name="NGXF">    48</i>
   <i type="int" name="NGYF">    48</i>
   <i type="int" name="NGZF">    48</i>
   <i type="logical" name="ADDGRID"> F  </i>
  </separator>
  <separator name="ionic" >
   <i type="int" name="NSW">   191</i>
   <i type="int" name="IBRION">     2</i>
   <i type="int" name="ISIF">     2</i>
   <i name="PSTRESS">      0.00000000</i>
   <i name="EDIFFG">      0.00100000</i>
   <i type="int" name="NFREE">     1</i>
   <i name="POTIM">      0.50000000</i>
   <i name="SMASS">     -3.00000000</i>
  </separator>
  <separator name="ionic md" >
   <i name="TEBEG">      0.00010000</i>
   <i name="TEEND">      0.00010000</i>
   <i type="int" name="NBLOCK">     1</i>
   <i type="int" name="KBLOCK">   191</i>
   <i type="int" name="NPACO">   256</i>
   <i name="APACO">     16.00000000</i>
  </separator>
  <separator name="symmetry" >
   <i type="int" name="ISYM">     2</i>
   <i name="SYMPREC">      0.00001000</i>
  </separator>
  <separator name="dos" >
   <i type="logical" name="LORBIT"> F  </i>
   <v name="RWIGS">     -1.00000000</v>
   <i type="int" name="NEDOS">   301</i>
   <i name="EMIN">     10.00000000</i>
   <i name="EMAX">    -10.00000000</i>
   <i name="EFERMI">      0.00000000</i>
  </separator>
  <separator name="writing" >
   <i type="int" name="NWRITE">     2</i>
   <i type="logical" name="LWAVE"> F  </i>
   <i type="logical" name="LCHARG"> F  </i>
   <i type="logical" name="LPARD"> F  </i>
   <i type="logical" name="LVTOT"> F  </i>
   <i type="logical" name="LELF"> F  </i>
   <i type="logical" name="LOPTICS"> F  </i>
   <v name="STM">      0.00000000      0.00000000      0.00000000      0.00000000      0.00000000</v>
  </separator>
  <separator name="performance" >
   <i type="int" name="NPAR">     1</i>
   <i type="int" name="NSIM">     4</i>
   <i type="int" name="NBLK">    32</i>
   <i type="logical" name="LPLANE"> T  </i>
   <i type="logical" name="LSCALAPACK"> F  </i>
   <i type="logical" name="LSCAAWARE"> F  </i>
   <i type="logical" name="LSCALU"> F  </i>
   <i type="logical" name="LASYNC"> F  </i>
  </separator>
  <separator name="miscellaneous" >
   <i type="int" name="IDIOT">     3</i>
   <i type="logical" name="LMUSIC"> F  </i>
   <v name="POMASS">     26.98200000</v>
   <i type="logical" name="LCORR"> T  </i>
  </separator>
  <i type="logical" name="LREAL_COMPAT"> F  </i>
  <i type="logical" name="GGA_COMPAT"> T  </i>
  <i type="logical" name="LBERRY"> F  </i>
  <i type="int" name="ICORELEVEL">     0</i>
  <i type="logical" name="LDAU"> F  </i>
  <i type="int" name="I_CONSTRAINED_M">     0</i>
  <separator name="electronic exchange-correlation" >
   <i type="string" name="GGA">--</i>
   <i type="int" name="VOSKOWN">     0</i>
   <i type="logical" name="LHFCALC"> F  </i>
   <i type="logical" name="LHFONE"> F  </i>
   <i type="logical" name="LRHFCALC"> F  </i>
   <i type="logical" name="LTHOMAS"> F  </i>
   <i type="logical" name="LMODELHF"> F  </i>
   <i name="ENCUTFOCK">      0.00000000</i>
   <i name="ENCUT4O">     -1.00000000</i>
   <i type="int" name="EXXOEP">     0</i>
   <i type="int" name="FOURORBIT">     0</i>
   <i name="AEXX">      0.00000000</i>
   <i name="HFALPHA">      0.00000000</i>
   <i name="ALDAX">      1.00000000</i>
   <i name="AGGAX">      1.00000000</i>
   <i name="ALDAC">      1.00000000</i>
   <i name="AGGAC">      1.00000000</i>
   <i type="int" name="NKREDX">     1</i>
   <i type="int" name="NKREDY">     1</i>
   <i type="int" name="NKREDZ">     1</i>
   <i type="logical" name="SHIFTRED"> F  </i>
   <i type="logical" name="ODDONLY"> F  </i>
   <i type="logical" name="EVENONLY"> F  </i>
   <i type="int" name="LMAXFOCK">     0</i>
   <i type="int" name="NMAXFOCKAE">     0</i>
   <i name="HFSCREEN">      0.00000000</i>
   <i name="HFSCREENC">      0.00000000</i>
  </separator>
  <separator name="model GW" >
   <i type="int" name="MODEL_GW">     0</i>
   <i name="MODEL_EPS0">      8.57500000</i>
   <i name="MODEL_ALPHA">      1.00000000</i>
  </separator>
  <separator name="linear response parameters" >
   <i type="logical" name="LEPSILON"> F  </i>
   <i type="logical" name="LRPA"> F  </i>
   <i type="logical" name="LNABLA"> F  </i>
   <i type="logical" name="LVEL"> F  </i>
   <i type="int" name="KINTER">     0</i>
   <i name="CSHIFT">      0.10000000</i>
   <i name="OMEGAMAX">     -1.00000000</i>
  </separator>
  <separator name="orbital magnetization" >
   <i type="logical" name="ORBITALMAG"> F  </i>
   <i type="logical" name="LMAGBLOCH"> F  </i>
   <i type="logical" name="LCHIMAG"> F  </i>
   <i type="logical" name="LGAUGE"> T  </i>
   <i type="int" name="MAGATOM">     0</i>
   <v name="MAGDIPOL">      0.00000000      0.00000000      0.00000000</v>
   <v name="AVECCONST">      0.00000000      0.00000000      0.00000000</v>
  </separator>
  <separator name="response functions" >
   <i type="logical" name="LRPA"> T  </i>
   <i type="logical" name="LTCTE"> F  </i>
   <i type="logical" name="LTETE"> F  </i>
   <i type="logical" name="L2ORDER"> F  </i>
   <i type="logical" name="LGWLF"> F  </i>
   <i name="ENCUTGW">    240.43700000</i>
   <i name="ENCUTGWSOFT">     -2.00000000</i>
   <i name="ENCUTLF">     -1.00000000</i>
   <i type="int" name="LMAXMP2">    -1</i>
   <i name="SCISSOR">      0.00000000</i>
   <i type="int" name="NOMEGA">     0</i>
   <i type="int" name="NOMEGAR">     0</i>
   <i type="int" name="NBANDSGW">    -1</i>
   <i type="int" name="NBANDSLF">    -1</i>
   <i type="int" name="NELM">     1</i>
   <i type="int" name="DIM">     3</i>
   <i type="int" name="ANTIRES">     0</i>
   <i type="logical" name="LUSEW"> F  </i>
   <i name="OMEGAMAX">    -30.00000000</i>
   <i name="OMEGATL">   -200.00000000</i>
   <i type="int" name="OMEGAGRID">     0</i>
   <i name="CSHIFT">     -0.10000000</i>
   <i type="logical" name="SELFENERGY"> F  </i>
   <i type="logical" name="LSPECTRAL"> F  </i>
   <i type="logical" name="ODDONLYGW"> F  </i>
   <i type="logical" name="EVENONLYGW"> F  </i>
   <i type="int" name="NKREDLFX">     1</i>
   <i type="int" name="NKREDLFY">     1</i>
   <i type="int" name="NKREDLFZ">     1</i>
   <i type="int" name="MAXMEM">  1024</i>
   <i type="int" name="TELESCOPE">     0</i>
  </separator>
 </parameters>
 <atominfo>
  <atoms>       3 </atoms>
  <types>       1 </types>
  <array name="atoms" >
   <dimension dim="1">ion</dimension>
   <field type="string">element</field>
   <field type="int">atomtype</field>
   <set>
    <rc><c>Al</c><c>   1</c></rc>
    <rc><c>Al</c><c>   1</c></rc>
    <rc><c>Al</c><c>   1</c></rc>
   </set>
  </array>
  <array name="atomtypes" >
   <dimension dim="1">type</dimension>
   <field type="int">atomspertype</field>
   <field type="string">element</field>
   <field>mass</field>
   <field>valence</field>
   <field type="string">pseudopotential</field>
   <set>
    <rc><c>   3</c><c>Al</c><c>     26.98200000</c><c>      3.00000000</c><c> PAW_GGA Al 05Jan2001                   </c></rc>
   </set>
  </array>
 </atominfo>
 <structure name="initialpos" >
  <crystal>
   <varray name="basis" >
    <v>       3.50000000       0.00000000       0.00000000 </v>
    <v>       0.00000000       3.50000000       0.00000000 </v>
    <v>       0.00000000       0.00000000       3.50000000 </v>
   </varray>
   <i name="volume">     42.87500000 </i>
   <varray name="rec_basis" >
    <v>       0.28571429       0.00000000       0.00000000 </v>
    <v>       0.00000000       0.28571429       0.00000000 </v>
    <v>       0.00000000       0.00000000       0.28571429 </v>
   </varray>
  </crystal>
  <varray name="positions" >
   <v>       0.50000000       0.50000000       0.00000000 </v>
   <v>       0.00000000       0.50000000       0.50000000 </v>
   <v>       0.50000000       0.00000000       0.50000000 </v>
  </varray>
 </structure>
 <calculation>
  <scstep>
   <time name="dav">    0.35    0.11</time>
   <time name="total">    1.05    0.63</time>
   <energy>
    <i name="alphaZ">     -0.53451638 </i>
    <i name="ewald">   -222.29814539 </i>
    <i name="hartreedc">     -2.67604008 </i>
    <i name="XCdc">    -78.29240780 </i>
    <i name="pawpsdc">    106.97730018 </i>
    <i name="pawaedc">    -10.81747568 </i>
    <i name="eentropy">     -0.05641896 </i>
    <i name="bandstr">     50.17714811 </i>
    <i name="atom">    161.07115403 </i>
    <i name="e_fr_energy">      3.55059804 </i>
    <i name="e_wo_entrp">      3.60701699 </i>
    <i name="e_0_energy">      3.56940436 </i>
   </energy>
  </scstep>
  <scstep>
   <time name="dav">    0.41    0.10</time>
   <time name="total">    0.42    0.11</time>
   <energy>
    <i name="e_fr_energy">     -8.74319264 </i>
    <i name="e_wo_entrp">     -8.71224813 </i>
    <i name="e_0_energy">     -8.73287781 </i>
   </energy>
  </scstep>
  <scstep>
   <time name="dav">    0.70    0.17</time>
   <time name="total">    0.71    0.18</time>
   <energy>
    <i name="e_fr_energy">     -8.92640814 </i>
    <i name="e_wo_entrp">     -8.84388541 </i>
    <i name="e_0_energy">     -8.89890057 </i>
   </energy>
  </scstep>
  <scstep>
   <time name="dav">    0.41    0.10</time>
   <time name="total">    0.42    0.11</time>
   <energy>
    <i name="e_fr_energy">     -8.92656486 </i>
    <i name="e_wo_entrp">     -8.84404200 </i>
    <i name="e_0_energy">     -8.89905724 </i>
   </energy>
  </scstep>
  <scstep>
   <time name="dav">    0.70    0.17</time>
   <time name="total">    0.98    0.25</time>
   <energy>
    <i name="e_fr_energy">     -8.92656575 </i>
    <i name="e_wo_entrp">     -8.84404289 </i>
    <i name="e_0_energy">     -8.89905813 </i>
   </energy>
  </scstep>
  <scstep>
   <time name="dav">    0.20    0.06</time>
   <time name="total">    0.75    0.51</time>
   <energy>
    <i name="e_fr_energy">     -8.75557973 </i>
    <i name="e_wo_entrp">     -8.67305687 </i>
    <i name="e_0_energy">     -8.72807211 </i>
   </energy>
  </scstep>
  <scstep>
   <time name="dav">    0.28    0.08</time>
   <time name="total">    0.75    0.39</time>
   <energy>
    <i name="e_fr_energy">     -8.70572615 </i>
    <i name="e_wo_entrp">     -8.62320328 </i>
    <i name="e_0_energy">     -8.67821853 </i>
   </energy>
  </scstep>
  <scstep>
   <time name="dav">    0.20    0.06</time>
   <time name="total">    0.71    0.37</time>
   <energy>
    <i name="e_fr_energy">     -8.70559862 </i>
    <i name="e_wo_entrp">     -8.62307576 </i>
    <i name="e_0_energy">     -8.67809100 </i>
   </energy>
  </scstep>
  <scstep>
   <time name="dav">    0.35    0.10</time>
   <time name="total">    0.75    0.37</time>
   <energy>
    <i name="alphaZ">     -0.53451638 </i>
    <i name="ewald">   -222.29814539 </i>
    <i name="hartreedc">     -4.23409920 </i>
    <i name="XCdc">    -77.71352535 </i>
    <i name="pawpsdc">    113.61865300 </i>
    <i name="pawaedc">    -17.80207172 </i>
    <i name="eentropy">     -0.08252286 </i>
    <i name="bandstr">     39.26948340 </i>
    <i name="atom">    161.07115403 </i>
    <i name="e_fr_energy">     -8.70559046 </i>
    <i name="e_wo_entrp">     -8.62306760 </i>
    <i name="e_0_energy">     -8.67808284 </i>
   </energy>
  </scstep>
  <structure>
   <crystal>
    <varray name="basis" >
     <v>       3.50000000       0.00000000       0.00000000 </v>
     <v>       0.00000000       3.50000000       0.00000000 </v>
     <v>       0.00000000       0.00000000       3.50000000 </v>
    </varray>
    <i name="volume">     42.87500000 </i>
    <varray name="rec_basis" >
     <v>       0.28571429       0.00000000       0.00000000 </v>
     <v>       0.00000000       0.28571429       0.00000000 </v>
     <v>       0.00000000       0.00000000       0.28571429 </v>
    </varray>
   </crystal>
   <varray name="positions" >
    <v>       0.50000000       0.50000000       0.00000000 </v>
    <v>       0.00000000       0.50000000       0.50000000 </v>
    <v>       0.50000000       0.00000000       0.50000000 </v>
   </varray>
  </structure>
  <varray name="forces" >
   <v>       0.00000000       0.00000000       0.00000000 </v>
   <v>       0.00000000       0.00000000       0.00000000 </v>
   <v>       0.00000000       0.00000000       0.00000000 </v>
  </varray>
  <varray name="stress" >
   <v>     446.00494963       0.00000000       0.00000000 </v>
   <v>       0.00000000     446.00494963       0.00000000 </v>
   <v>       0.00000000       0.00000000     446.00494963 </v>
  </varray>
  <energy>
   <i name="e_fr_energy">     -8.70559046 </i>
   <i name="e_wo_entrp">     -8.67808284 </i>
   <i name="e_0_energy">     -0.08252286 </i>
  </energy>
  <time name="totalsc">    7.94    3.76</time>
  <eigenvalues>
   <array>
    <dimension dim="1">band</dimension>
    <dimension dim="2">kpoint</dimension>
    <dimension dim="3">spin</dimension>
    <field>eigene</field>
    <field>occ</field>
    <set>
     <set comment="spin 1">
      <set comment="kpoint 1">
       <r>   -0.8425    1.0000 </r>
       <r>    4.9145    1.0000 </r>
       <r>    5.1509    1.0000 </r>
       <r>    5.1509    1.0000 </r>
       <r>   10.5220    0.2500 </r>
       <r>   10.5220    0.2500 </r>
       <r>   11.4212    0.0000 </r>
       <r>   16.2848    0.0000 </r>
      </set>
     </set>
    </set>
   </array>
  </eigenvalues>
  <separator name="orbital magnetization" >
   <v name="MAGDIPOLOUT">      0.00000000      0.00000000      0.00000000</v>
  </separator>
  <dos>
   <i name="efermi">     10.45968491 </i>
   <total>
    <array>
     <dimension dim="1">gridpoints</dimension>
     <dimension dim="2">spin</dimension>
     <field>energy</field>
     <field>total</field>
     <field>integrated</field>
     <set>
      <set comment="spin 1">
       <r>  -2.8425   0.0000   0.0000 </r>
       <r>  -2.7721   0.0000   0.0000 </r>
       <r>  -2.7017   0.0000   0.0000 </r>
       <r>  -2.6312   0.0000   0.0000 </r>
       <r>  -2.5608   0.0000   0.0000 </r>
       <r>  -2.4904   0.0000   0.0000 </r>
       <r>  -2.4200   0.0000   0.0000 </r>
       <r>  -2.3495   0.0000   0.0000 </r>
       <r>  -2.2791   0.0000   0.0000 </r>
       <r>  -2.2087   0.0000   0.0000 </r>
       <r>  -2.1383   0.0000   0.0000 </r>
       <r>  -2.0678   0.0000   0.0000 </r>
       <r>  -1.9974   0.0000   0.0000 </r>
       <r>  -1.9270   0.0000   0.0000 </r>
       <r>  -1.8566   0.0000   0.0000 </r>
       <r>  -1.7861   0.0000   0.0000 </r>
       <r>  -1.7157   0.0000   0.0000 </r>
       <r>  -1.6453   0.0000   0.0000 </r>
       <r>  -1.5749   0.0000   0.0000 </r>
       <r>  -1.5044  -0.0004   0.0000 </r>
       <r>  -1.4340  -0.0029  -0.0002 </r>
       <r>  -1.3636  -0.0169  -0.0014 </r>
       <r>  -1.2932  -0.0719  -0.0065 </r>
       <r>  -1.2227  -0.2162  -0.0217 </r>
       <r>  -1.1523  -0.4136  -0.0508 </r>
       <r>  -1.0819  -0.2815  -0.0707 </r>
       <r>  -1.0115   0.9852  -0.0013 </r>
       <r>  -0.9411   3.8219   0.2679 </r>
       <r>  -0.8706   7.0540   0.7646 </r>
       <r>  -0.8002   8.3020   1.3493 </r>
       <r>  -0.7298   6.4860   1.8061 </r>
       <r>  -0.6594   3.1522   2.0281 </r>
       <r>  -0.5889   0.6007   2.0704 </r>
       <r>  -0.5185  -0.3705   2.0443 </r>
       <r>  -0.4481  -0.3807   2.0175 </r>
       <r>  -0.3777  -0.1786   2.0049 </r>
       <r>  -0.3072  -0.0551   2.0010 </r>
       <r>  -0.2368  -0.0122   2.0002 </r>
       <r>  -0.1664  -0.0020   2.0000 </r>
       <r>  -0.0960  -0.0002   2.0000 </r>
       <r>  -0.0255   0.0000   2.0000 </r>
       <r>   0.0449   0.0000   2.0000 </r>
       <r>   0.1153   0.0000   2.0000 </r>
       <r>   0.1857   0.0000   2.0000 </r>
       <r>   0.2562   0.0000   2.0000 </r>
       <r>   0.3266   0.0000   2.0000 </r>
       <r>   0.3970   0.0000   2.0000 </r>
       <r>   0.4674   0.0000   2.0000 </r>
       <r>   0.5379   0.0000   2.0000 </r>
       <r>   0.6083   0.0000   2.0000 </r>
       <r>   0.6787   0.0000   2.0000 </r>
       <r>   0.7491   0.0000   2.0000 </r>
       <r>   0.8196   0.0000   2.0000 </r>
       <r>   0.8900   0.0000   2.0000 </r>
       <r>   0.9604   0.0000   2.0000 </r>
       <r>   1.0308   0.0000   2.0000 </r>
       <r>   1.1013   0.0000   2.0000 </r>
       <r>   1.1717   0.0000   2.0000 </r>
       <r>   1.2421   0.0000   2.0000 </r>
       <r>   1.3125   0.0000   2.0000 </r>
       <r>   1.3830   0.0000   2.0000 </r>
       <r>   1.4534   0.0000   2.0000 </r>
       <r>   1.5238   0.0000   2.0000 </r>
       <r>   1.5942   0.0000   2.0000 </r>
       <r>   1.6647   0.0000   2.0000 </r>
       <r>   1.7351   0.0000   2.0000 </r>
       <r>   1.8055   0.0000   2.0000 </r>
       <r>   1.8759   0.0000   2.0000 </r>
       <r>   1.9463   0.0000   2.0000 </r>
       <r>   2.0168   0.0000   2.0000 </r>
       <r>   2.0872   0.0000   2.0000 </r>
       <r>   2.1576   0.0000   2.0000 </r>
       <r>   2.2280   0.0000   2.0000 </r>
       <r>   2.2985   0.0000   2.0000 </r>
       <r>   2.3689   0.0000   2.0000 </r>
       <r>   2.4393   0.0000   2.0000 </r>
       <r>   2.5097   0.0000   2.0000 </r>
       <r>   2.5802   0.0000   2.0000 </r>
       <r>   2.6506   0.0000   2.0000 </r>
       <r>   2.7210   0.0000   2.0000 </r>
       <r>   2.7914   0.0000   2.0000 </r>
       <r>   2.8619   0.0000   2.0000 </r>
       <r>   2.9323   0.0000   2.0000 </r>
       <r>   3.0027   0.0000   2.0000 </r>
       <r>   3.0731   0.0000   2.0000 </r>
       <r>   3.1436   0.0000   2.0000 </r>
       <r>   3.2140   0.0000   2.0000 </r>
       <r>   3.2844   0.0000   2.0000 </r>
       <r>   3.3548   0.0000   2.0000 </r>
       <r>   3.4253   0.0000   2.0000 </r>
       <r>   3.4957   0.0000   2.0000 </r>
       <r>   3.5661   0.0000   2.0000 </r>
       <r>   3.6365   0.0000   2.0000 </r>
       <r>   3.7070   0.0000   2.0000 </r>
       <r>   3.7774   0.0000   2.0000 </r>
       <r>   3.8478   0.0000   2.0000 </r>
       <r>   3.9182   0.0000   2.0000 </r>
       <r>   3.9887   0.0000   2.0000 </r>
       <r>   4.0591   0.0000   2.0000 </r>
       <r>   4.1295   0.0000   2.0000 </r>
       <r>   4.1999  -0.0001   2.0000 </r>
       <r>   4.2704  -0.0007   1.9999 </r>
       <r>   4.3408  -0.0047   1.9996 </r>
       <r>   4.4112  -0.0252   1.9978 </r>
       <r>   4.4816  -0.0990   1.9909 </r>
       <r>   4.5521  -0.2727   1.9717 </r>
       <r>   4.6225  -0.4666   1.9388 </r>
       <r>   4.6929  -0.2280   1.9228 </r>
       <r>   4.7633   1.1741   2.0054 </r>
       <r>   4.8337   3.8954   2.2798 </r>
       <r>   4.9042   6.9784   2.7712 </r>
       <r>   4.9746   9.6671   3.4520 </r>
       <r>   5.0450  12.6287   4.3414 </r>
       <r>   5.1154  15.9065   5.4616 </r>
       <r>   5.1859  16.8536   6.6485 </r>
       <r>   5.2563  13.1497   7.5746 </r>
       <r>   5.3267   6.6587   8.0435 </r>
       <r>   5.3971   1.4438   8.1452 </r>
       <r>   5.4676  -0.6985   8.0960 </r>
       <r>   5.5380  -0.8056   8.0393 </r>
       <r>   5.6084  -0.3963   8.0114 </r>
       <r>   5.6788  -0.1268   8.0024 </r>
       <r>   5.7493  -0.0289   8.0004 </r>
       <r>   5.8197  -0.0049   8.0000 </r>
       <r>   5.8901  -0.0006   8.0000 </r>
       <r>   5.9605  -0.0001   8.0000 </r>
       <r>   6.0310   0.0000   8.0000 </r>
       <r>   6.1014   0.0000   8.0000 </r>
       <r>   6.1718   0.0000   8.0000 </r>
       <r>   6.2422   0.0000   8.0000 </r>
       <r>   6.3127   0.0000   8.0000 </r>
       <r>   6.3831   0.0000   8.0000 </r>
       <r>   6.4535   0.0000   8.0000 </r>
       <r>   6.5239   0.0000   8.0000 </r>
       <r>   6.5944   0.0000   8.0000 </r>
       <r>   6.6648   0.0000   8.0000 </r>
       <r>   6.7352   0.0000   8.0000 </r>
       <r>   6.8056   0.0000   8.0000 </r>
       <r>   6.8761   0.0000   8.0000 </r>
       <r>   6.9465   0.0000   8.0000 </r>
       <r>   7.0169   0.0000   8.0000 </r>
       <r>   7.0873   0.0000   8.0000 </r>
       <r>   7.1578   0.0000   8.0000 </r>
       <r>   7.2282   0.0000   8.0000 </r>
       <r>   7.2986   0.0000   8.0000 </r>
       <r>   7.3690   0.0000   8.0000 </r>
       <r>   7.4395   0.0000   8.0000 </r>
       <r>   7.5099   0.0000   8.0000 </r>
       <r>   7.5803   0.0000   8.0000 </r>
       <r>   7.6507   0.0000   8.0000 </r>
       <r>   7.7211   0.0000   8.0000 </r>
       <r>   7.7916   0.0000   8.0000 </r>
       <r>   7.8620   0.0000   8.0000 </r>
       <r>   7.9324   0.0000   8.0000 </r>
       <r>   8.0028   0.0000   8.0000 </r>
       <r>   8.0733   0.0000   8.0000 </r>
       <r>   8.1437   0.0000   8.0000 </r>
       <r>   8.2141   0.0000   8.0000 </r>
       <r>   8.2845   0.0000   8.0000 </r>
       <r>   8.3550   0.0000   8.0000 </r>
       <r>   8.4254   0.0000   8.0000 </r>
       <r>   8.4958   0.0000   8.0000 </r>
       <r>   8.5662   0.0000   8.0000 </r>
       <r>   8.6367   0.0000   8.0000 </r>
       <r>   8.7071   0.0000   8.0000 </r>
       <r>   8.7775   0.0000   8.0000 </r>
       <r>   8.8479   0.0000   8.0000 </r>
       <r>   8.9184   0.0000   8.0000 </r>
       <r>   8.9888   0.0000   8.0000 </r>
       <r>   9.0592   0.0000   8.0000 </r>
       <r>   9.1296   0.0000   8.0000 </r>
       <r>   9.2001   0.0000   8.0000 </r>
       <r>   9.2705   0.0000   8.0000 </r>
       <r>   9.3409   0.0000   8.0000 </r>
       <r>   9.4113   0.0000   8.0000 </r>
       <r>   9.4818   0.0000   8.0000 </r>
       <r>   9.5522   0.0000   8.0000 </r>
       <r>   9.6226   0.0000   8.0000 </r>
       <r>   9.6930   0.0000   8.0000 </r>
       <r>   9.7635   0.0000   8.0000 </r>
       <r>   9.8339  -0.0003   8.0000 </r>
       <r>   9.9043  -0.0028   7.9998 </r>
       <r>   9.9747  -0.0183   7.9985 </r>
       <r>  10.0452  -0.0872   7.9924 </r>
       <r>  10.1156  -0.3002   7.9712 </r>
       <r>  10.1860  -0.6947   7.9223 </r>
       <r>  10.2564  -0.8299   7.8638 </r>
       <r>  10.3269   0.6600   7.9103 </r>
       <r>  10.3973   5.2311   8.2787 </r>
       <r>  10.4677  11.9106   9.1175 </r>
       <r>  10.5381  16.3936  10.2720 </r>
       <r>  10.6085  14.9361  11.3239 </r>
       <r>  10.6790   8.8099  11.9443 </r>
       <r>  10.7494   2.7286  12.1365 </r>
       <r>  10.8198  -0.3426  12.1124 </r>
       <r>  10.8902  -0.8789  12.0505 </r>
       <r>  10.9607  -0.5608  12.0110 </r>
       <r>  11.0311  -0.3675  11.9851 </r>
       <r>  11.1015  -0.4358  11.9544 </r>
       <r>  11.1719  -0.3562  11.9293 </r>
       <r>  11.2424   0.7080  11.9792 </r>
       <r>  11.3128   3.3505  12.2151 </r>
       <r>  11.3832   6.6648  12.6845 </r>
       <r>  11.4536   8.3163  13.2702 </r>
       <r>  11.5241   6.8910  13.7555 </r>
       <r>  11.5945   3.6172  14.0102 </r>
       <r>  11.6649   0.8620  14.0709 </r>
       <r>  11.7353  -0.3129  14.0489 </r>
       <r>  11.8058  -0.4047  14.0204 </r>
       <r>  11.8762  -0.2045  14.0060 </r>
       <r>  11.9466  -0.0664  14.0013 </r>
       <r>  12.0170  -0.0153  14.0002 </r>
       <r>  12.0875  -0.0026  14.0000 </r>
       <r>  12.1579  -0.0003  14.0000 </r>
       <r>  12.2283   0.0000  14.0000 </r>
       <r>  12.2987   0.0000  14.0000 </r>
       <r>  12.3692   0.0000  14.0000 </r>
       <r>  12.4396   0.0000  14.0000 </r>
       <r>  12.5100   0.0000  14.0000 </r>
       <r>  12.5804   0.0000  14.0000 </r>
       <r>  12.6509   0.0000  14.0000 </r>
       <r>  12.7213   0.0000  14.0000 </r>
       <r>  12.7917   0.0000  14.0000 </r>
       <r>  12.8621   0.0000  14.0000 </r>
       <r>  12.9326   0.0000  14.0000 </r>
       <r>  13.0030   0.0000  14.0000 </r>
       <r>  13.0734   0.0000  14.0000 </r>
       <r>  13.1438   0.0000  14.0000 </r>
       <r>  13.2142   0.0000  14.0000 </r>
       <r>  13.2847   0.0000  14.0000 </r>
       <r>  13.3551   0.0000  14.0000 </r>
       <r>  13.4255   0.0000  14.0000 </r>
       <r>  13.4959   0.0000  14.0000 </r>
       <r>  13.5664   0.0000  14.0000 </r>
       <r>  13.6368   0.0000  14.0000 </r>
       <r>  13.7072   0.0000  14.0000 </r>
       <r>  13.7776   0.0000  14.0000 </r>
       <r>  13.8481   0.0000  14.0000 </r>
       <r>  13.9185   0.0000  14.0000 </r>
       <r>  13.9889   0.0000  14.0000 </r>
       <r>  14.0593   0.0000  14.0000 </r>
       <r>  14.1298   0.0000  14.0000 </r>
       <r>  14.2002   0.0000  14.0000 </r>
       <r>  14.2706   0.0000  14.0000 </r>
       <r>  14.3410   0.0000  14.0000 </r>
       <r>  14.4115   0.0000  14.0000 </r>
       <r>  14.4819   0.0000  14.0000 </r>
       <r>  14.5523   0.0000  14.0000 </r>
       <r>  14.6227   0.0000  14.0000 </r>
       <r>  14.6932   0.0000  14.0000 </r>
       <r>  14.7636   0.0000  14.0000 </r>
       <r>  14.8340   0.0000  14.0000 </r>
       <r>  14.9044   0.0000  14.0000 </r>
       <r>  14.9749   0.0000  14.0000 </r>
       <r>  15.0453   0.0000  14.0000 </r>
       <r>  15.1157   0.0000  14.0000 </r>
       <r>  15.1861   0.0000  14.0000 </r>
       <r>  15.2566   0.0000  14.0000 </r>
       <r>  15.3270   0.0000  14.0000 </r>
       <r>  15.3974   0.0000  14.0000 </r>
       <r>  15.4678   0.0000  14.0000 </r>
       <r>  15.5383   0.0000  14.0000 </r>
       <r>  15.6087  -0.0002  14.0000 </r>
       <r>  15.6791  -0.0020  13.9998 </r>
       <r>  15.7495  -0.0122  13.9990 </r>
       <r>  15.8200  -0.0551  13.9951 </r>
       <r>  15.8904  -0.1786  13.9825 </r>
       <r>  15.9608  -0.3807  13.9557 </r>
       <r>  16.0312  -0.3705  13.9296 </r>
       <r>  16.1016   0.6007  13.9719 </r>
       <r>  16.1721   3.1522  14.1939 </r>
       <r>  16.2425   6.4860  14.6507 </r>
       <r>  16.3129   8.3020  15.2354 </r>
       <r>  16.3833   7.0540  15.7321 </r>
       <r>  16.4538   3.8219  16.0013 </r>
       <r>  16.5242   0.9852  16.0707 </r>
       <r>  16.5946  -0.2815  16.0508 </r>
       <r>  16.6650  -0.4136  16.0217 </r>
       <r>  16.7355  -0.2162  16.0065 </r>
       <r>  16.8059  -0.0719  16.0014 </r>
       <r>  16.8763  -0.0169  16.0002 </r>
       <r>  16.9467  -0.0029  16.0000 </r>
       <r>  17.0172  -0.0004  16.0000 </r>
       <r>  17.0876   0.0000  16.0000 </r>
       <r>  17.1580   0.0000  16.0000 </r>
       <r>  17.2284   0.0000  16.0000 </r>
       <r>  17.2989   0.0000  16.0000 </r>
       <r>  17.3693   0.0000  16.0000 </r>
       <r>  17.4397   0.0000  16.0000 </r>
       <r>  17.5101   0.0000  16.0000 </r>
       <r>  17.5806   0.0000  16.0000 </r>
       <r>  17.6510   0.0000  16.0000 </r>
       <r>  17.7214   0.0000  16.0000 </r>
       <r>  17.7918   0.0000  16.0000 </r>
       <r>  17.8623   0.0000  16.0000 </r>
       <r>  17.9327   0.0000  16.0000 </r>
       <r>  18.0031   0.0000  16.0000 </r>
       <r>  18.0735   0.0000  16.0000 </r>
       <r>  18.1440   0.0000  16.0000 </r>
       <r>  18.2144   0.0000  16.0000 </r>
       <r>  18.2848   0.0000  16.0000 </r>
      </set>
     </set>
    </array>
   </total>
  </dos>
 </calculation>
 <structure name="finalpos" >
  <crystal>
   <varray name="basis" >
    <v>       3.50000000       0.00000000       0.00000000 </v>
    <v>       0.00000000       3.50000000       0.00000000 </v>
    <v>       0.00000000       0.00000000       3.50000000 </v>
   </varray>
   <i name="volume">     42.87500000 </i>
   <varray name="rec_basis" >
    <v>       0.28571429       0.00000000       0.00000000 </v>
    <v>       0.00000000       0.28571429       0.00000000 </v>
    <v>       0.00000000       0.00000000       0.28571429 </v>
   </varray>
  </crystal>
  <varray name="positions" >
   <v>       0.50000000       0.50000000       0.00000000 </v>
   <v>       0.00000000       0.50000000       0.50000000 </v>
   <v>       0.50000000       0.00000000       0.50000000 </v>
  </varray>
 </structure>
</modeling>
