  32  32   0   0
  0.1660753E+02  0.8100000E-09  0.8100000E-09  0.8100000E-09  0.5000000E-15
  1.000000000000000E-004
  CAR 
 unknown system                          
     18.07785472     -5.01233568  301      8.48316821      1.00000000
     -5.012  0.0000E+00  0.0000E+00
     -4.935  0.0000E+00  0.0000E+00
     -4.858  0.0000E+00  0.0000E+00
     -4.781  0.0000E+00  0.0000E+00
     -4.704  0.0000E+00  0.0000E+00
     -4.627 -0.1469E-28 -0.1131E-29
     -4.551 -0.6025E-26 -0.4649E-27
     -4.474 -0.1836E-23 -0.1418E-24
     -4.397 -0.4147E-21 -0.3206E-22
     -4.320 -0.6941E-19 -0.5374E-20
     -4.243 -0.8605E-17 -0.6676E-18
     -4.166 -0.7669E-15 -0.5970E-16
     -4.089 -0.5176E-13 -0.4043E-14
     -4.012 -0.2581E-11 -0.2027E-12
     -3.935 -0.9480E-10 -0.7499E-11
     -3.858 -0.2560E-08 -0.2045E-09
     -3.781 -0.5062E-07 -0.4101E-08
     -3.704 -0.7300E-06 -0.6028E-07
     -3.627 -0.7618E-05 -0.6467E-06
     -3.550 -0.5687E-04 -0.5024E-05
     -3.473 -0.2972E-03 -0.2790E-04
     -3.396 -0.1040E-02 -0.1080E-03
     -3.319 -0.2152E-02 -0.2736E-03
     -3.242 -0.1135E-02 -0.3610E-03
     -3.165  0.7379E-02  0.2070E-03
     -3.088  0.2497E-01  0.2129E-02
     -3.011  0.4102E-01  0.5287E-02
     -2.934  0.4073E-01  0.8421E-02
     -2.857  0.2439E-01  0.1030E-01
     -2.780  0.6975E-02  0.1084E-01
     -2.703 -0.1246E-02  0.1074E-01
     -2.626 -0.2128E-02  0.1058E-01
     -2.549 -0.1009E-02  0.1050E-01
     -2.472 -0.2845E-03  0.1048E-01
     -2.395 -0.5382E-04  0.1047E-01
     -2.318 -0.7137E-05  0.1047E-01
     -2.242 -0.6772E-06  0.1047E-01
     -2.165 -0.4652E-07  0.1047E-01
     -2.088 -0.2330E-08  0.1047E-01
     -2.011 -0.8551E-10  0.1047E-01
     -1.934 -0.2307E-11  0.1047E-01
     -1.857 -0.5371E-13  0.1047E-01
     -1.780 -0.5109E-12  0.1047E-01
     -1.703 -0.2451E-10  0.1047E-01
     -1.626 -0.8670E-09  0.1047E-01
     -1.549 -0.2253E-07  0.1047E-01
     -1.472 -0.4288E-06  0.1047E-01
     -1.395 -0.5946E-05  0.1047E-01
     -1.318 -0.5960E-04  0.1047E-01
     -1.241 -0.4264E-03  0.1043E-01
     -1.164 -0.2128E-02  0.1027E-01
     -1.087 -0.7052E-02  0.9727E-02
     -1.010 -0.1339E-01  0.8696E-02
     -0.933 -0.3632E-02  0.8416E-02
     -0.856  0.5482E-01  0.1264E-01
     -0.779  0.1642E+00  0.2527E-01
     -0.702  0.2524E+00  0.4470E-01
     -0.625  0.2361E+00  0.6287E-01
     -0.548  0.1319E+00  0.7302E-01
     -0.471  0.3247E-01  0.7552E-01
     -0.394 -0.9789E-02  0.7477E-01
     -0.317 -0.1210E-01  0.7384E-01
     -0.240 -0.5308E-02  0.7343E-01
     -0.163 -0.1420E-02  0.7332E-01
     -0.086 -0.2567E-03  0.7330E-01
     -0.009 -0.3264E-04  0.7330E-01
      0.068 -0.2975E-05  0.7330E-01
      0.144 -0.1965E-06  0.7330E-01
      0.221 -0.9472E-08  0.7330E-01
      0.298 -0.3347E-09  0.7330E-01
      0.375 -0.8697E-11  0.7330E-01
      0.452 -0.3759E-12  0.7330E-01
      0.529 -0.1133E-10  0.7330E-01
      0.606 -0.4511E-09  0.7330E-01
      0.683 -0.1322E-07  0.7330E-01
      0.760 -0.2840E-06  0.7330E-01
      0.837 -0.4456E-05  0.7330E-01
      0.914 -0.5071E-04  0.7329E-01
      0.991 -0.4143E-03  0.7326E-01
      1.068 -0.2387E-02  0.7308E-01
      1.145 -0.9355E-02  0.7236E-01
      1.222 -0.2277E-01  0.7061E-01
      1.299 -0.2274E-01  0.6886E-01
      1.376  0.4950E-01  0.7267E-01
      1.453  0.2376E+00  0.9095E-01
      1.530  0.4547E+00  0.1259E+00
      1.607  0.5132E+00  0.1654E+00
      1.684  0.3542E+00  0.1927E+00
      1.761  0.1305E+00  0.2027E+00
      1.838 -0.1156E-03  0.2027E+00
      1.915 -0.2729E-01  0.2006E+00
      1.992 -0.1566E-01  0.1994E+00
      2.069 -0.4977E-02  0.1990E+00
      2.146 -0.1041E-02  0.1990E+00
      2.223 -0.1512E-03  0.1990E+00
      2.300 -0.1566E-04  0.1990E+00
      2.377 -0.1171E-05  0.1990E+00
      2.453 -0.6372E-07  0.1990E+00
      2.530 -0.2539E-08  0.1990E+00
      2.607 -0.7674E-10  0.1990E+00
      2.684 -0.1030E-09  0.1990E+00
      2.761 -0.3073E-08  0.1990E+00
      2.838 -0.6837E-07  0.1990E+00
      2.915 -0.1111E-05  0.1990E+00
      2.992 -0.1311E-04  0.1990E+00
      3.069 -0.1112E-03  0.1989E+00
      3.146 -0.6670E-03  0.1989E+00
      3.223 -0.2737E-02  0.1987E+00
      3.300 -0.7100E-02  0.1981E+00
      3.377 -0.8457E-02  0.1975E+00
      3.454  0.1116E-01  0.1983E+00
      3.531  0.6767E-01  0.2036E+00
      3.608  0.1375E+00  0.2141E+00
      3.685  0.1651E+00  0.2268E+00
      3.762  0.1420E+00  0.2378E+00
      3.839  0.1286E+00  0.2477E+00
      3.916  0.1533E+00  0.2595E+00
      3.993  0.1623E+00  0.2720E+00
      4.070  0.1137E+00  0.2807E+00
      4.147  0.4272E-01  0.2840E+00
      4.224 -0.3315E-04  0.2840E+00
      4.301 -0.9174E-02  0.2833E+00
      4.378 -0.5311E-02  0.2829E+00
      4.455 -0.1701E-02  0.2828E+00
      4.532 -0.3581E-03  0.2827E+00
      4.609 -0.5268E-04  0.2827E+00
      4.686 -0.9666E-05  0.2827E+00
      4.763 -0.4069E-04  0.2827E+00
      4.839 -0.2743E-03  0.2827E+00
      4.916 -0.1296E-02  0.2826E+00
      4.993 -0.4021E-02  0.2823E+00
      5.070 -0.6838E-02  0.2818E+00
      5.147  0.5097E-03  0.2818E+00
      5.224  0.3407E-01  0.2844E+00
      5.301  0.9024E-01  0.2914E+00
      5.378  0.1287E+00  0.3013E+00
      5.455  0.1124E+00  0.3099E+00
      5.532  0.5765E-01  0.3144E+00
      5.609  0.1140E-01  0.3152E+00
      5.686 -0.5857E-02  0.3148E+00
      5.763 -0.5592E-02  0.3144E+00
      5.840 -0.2258E-02  0.3142E+00
      5.917 -0.5691E-03  0.3141E+00
      5.994 -0.9786E-04  0.3141E+00
      6.071 -0.1414E-04  0.3141E+00
      6.148 -0.2490E-04  0.3141E+00
      6.225 -0.1771E-03  0.3141E+00
      6.302 -0.9182E-03  0.3140E+00
      6.379 -0.3186E-02  0.3138E+00
      6.456 -0.6502E-02  0.3133E+00
      6.533 -0.3170E-02  0.3131E+00
      6.610  0.2297E-01  0.3148E+00
      6.687  0.7609E-01  0.3207E+00
      6.764  0.1236E+00  0.3302E+00
      6.841  0.1215E+00  0.3396E+00
      6.918  0.7157E-01  0.3451E+00
      6.995  0.1777E-01  0.3464E+00
      7.072 -0.1322E-01  0.3454E+00
      7.148 -0.2900E-01  0.3432E+00
      7.225 -0.2589E-01  0.3412E+00
      7.302  0.4761E-01  0.3449E+00
      7.379  0.2355E+00  0.3630E+00
      7.456  0.4533E+00  0.3979E+00
      7.533  0.5137E+00  0.4374E+00
      7.610  0.3560E+00  0.4648E+00
      7.687  0.1320E+00  0.4750E+00
      7.764  0.4518E-03  0.4750E+00
      7.841 -0.2733E-01  0.4729E+00
      7.918 -0.1595E-01  0.4717E+00
      7.995 -0.6066E-02  0.4712E+00
      8.072 -0.5261E-02  0.4708E+00
      8.149 -0.1092E-01  0.4700E+00
      8.226 -0.1233E-01  0.4690E+00
      8.303  0.1910E-01  0.4705E+00
      8.380  0.1084E+00  0.4788E+00
      8.457  0.2194E+00  0.4957E+00
      8.534  0.2589E+00  0.5156E+00
      8.611  0.1872E+00  0.5300E+00
      8.688  0.7414E-01  0.5358E+00
      8.765  0.3332E-02  0.5360E+00
      8.842 -0.1369E-01  0.5350E+00
      8.919 -0.8488E-02  0.5343E+00
      8.996 -0.2934E-02  0.5341E+00
      9.073 -0.1511E-02  0.5340E+00
      9.150 -0.4803E-02  0.5336E+00
      9.227 -0.1663E-01  0.5323E+00
      9.304 -0.3532E-01  0.5296E+00
      9.381 -0.2279E-01  0.5278E+00
      9.458  0.1087E+00  0.5362E+00
      9.534  0.3988E+00  0.5669E+00
      9.611  0.6932E+00  0.6202E+00
      9.688  0.7366E+00  0.6769E+00
      9.765  0.4874E+00  0.7145E+00
      9.842  0.1738E+00  0.7278E+00
      9.919 -0.1625E-02  0.7277E+00
      9.996 -0.3722E-01  0.7248E+00
     10.073 -0.2150E-01  0.7232E+00
     10.150 -0.6999E-02  0.7226E+00
     10.227 -0.1517E-02  0.7225E+00
     10.304 -0.2311E-03  0.7225E+00
     10.381 -0.2534E-04  0.7225E+00
     10.458 -0.2609E-05  0.7225E+00
     10.535 -0.8650E-05  0.7225E+00
     10.612 -0.8936E-04  0.7225E+00
     10.689 -0.6694E-03  0.7225E+00
     10.766 -0.3512E-02  0.7222E+00
     10.843 -0.1235E-01  0.7212E+00
     10.920 -0.2573E-01  0.7193E+00
     10.997 -0.1409E-01  0.7182E+00
     11.074  0.8684E-01  0.7249E+00
     11.151  0.2972E+00  0.7477E+00
     11.228  0.4911E+00  0.7855E+00
     11.305  0.4900E+00  0.8232E+00
     11.382  0.2951E+00  0.8460E+00
     11.459  0.8539E-01  0.8525E+00
     11.536 -0.1449E-01  0.8514E+00
     11.613 -0.2564E-01  0.8494E+00
     11.690 -0.1224E-01  0.8485E+00
     11.767 -0.3467E-02  0.8482E+00
     11.844 -0.6585E-03  0.8482E+00
     11.920 -0.8763E-04  0.8482E+00
     11.997 -0.8343E-05  0.8482E+00
     12.074 -0.5750E-06  0.8482E+00
     12.151 -0.2890E-07  0.8482E+00
     12.228 -0.1064E-08  0.8482E+00
     12.305 -0.2879E-10  0.8482E+00
     12.382 -0.5742E-12  0.8482E+00
     12.459 -0.8524E-14  0.8482E+00
     12.536 -0.1457E-13  0.8482E+00
     12.613 -0.8643E-12  0.8482E+00
     12.690 -0.3780E-10  0.8482E+00
     12.767 -0.1217E-08  0.8482E+00
     12.844 -0.2876E-07  0.8482E+00
     12.921 -0.4970E-06  0.8482E+00
     12.998 -0.6244E-05  0.8482E+00
     13.075 -0.5653E-04  0.8482E+00
     13.152 -0.3633E-03  0.8481E+00
     13.229 -0.1611E-02  0.8480E+00
     13.306 -0.4614E-02  0.8477E+00
     13.383 -0.6764E-02  0.8471E+00
     13.460  0.3885E-02  0.8474E+00
     13.537  0.4232E-01  0.8507E+00
     13.614  0.9851E-01  0.8583E+00
     13.691  0.1271E+00  0.8681E+00
     13.768  0.9596E-01  0.8754E+00
     13.845  0.3476E-01  0.8781E+00
     13.922  0.1211E-01  0.8791E+00
     13.999  0.7287E-01  0.8847E+00
     14.076  0.1878E+00  0.8991E+00
     14.153  0.2579E+00  0.9190E+00
     14.229  0.2142E+00  0.9355E+00
     14.306  0.1025E+00  0.9433E+00
     14.383  0.1611E-01  0.9446E+00
     14.460 -0.1273E-01  0.9436E+00
     14.537 -0.1040E-01  0.9428E+00
     14.614 -0.3952E-02  0.9425E+00
     14.691 -0.9511E-03  0.9424E+00
     14.768 -0.1568E-03  0.9424E+00
     14.845 -0.1829E-04  0.9424E+00
     14.922 -0.1535E-05  0.9424E+00
     14.999 -0.9363E-07  0.9424E+00
     15.076 -0.7146E-08  0.9424E+00
     15.153 -0.6341E-07  0.9424E+00
     15.230 -0.9845E-06  0.9424E+00
     15.307 -0.1119E-04  0.9424E+00
     15.384 -0.9226E-04  0.9424E+00
     15.461 -0.5453E-03  0.9424E+00
     15.538 -0.2258E-02  0.9422E+00
     15.615 -0.6198E-02  0.9417E+00
     15.692 -0.9303E-02  0.9410E+00
     15.769  0.2406E-02  0.9412E+00
     15.846  0.4977E-01  0.9450E+00
     15.923  0.1333E+00  0.9553E+00
     16.000  0.2102E+00  0.9715E+00
     16.077  0.2224E+00  0.9886E+00
     16.154  0.1586E+00  0.1001E+01
     16.231  0.6926E-01  0.1006E+01
     16.308  0.9532E-02  0.1007E+01
     16.385 -0.9349E-02  0.1006E+01
     16.462 -0.7574E-02  0.1006E+01
     16.539 -0.2995E-02  0.1005E+01
     16.615 -0.7646E-03  0.1005E+01
     16.692 -0.1353E-03  0.1005E+01
     16.769 -0.1708E-04  0.1005E+01
     16.846 -0.1561E-05  0.1005E+01
     16.923 -0.1040E-06  0.1005E+01
     17.000 -0.5085E-08  0.1005E+01
     17.077 -0.1829E-09  0.1005E+01
     17.154 -0.4852E-11  0.1005E+01
     17.231 -0.9516E-13  0.1005E+01
     17.308 -0.1359E-14  0.1005E+01
     17.385  0.0000E+00  0.1005E+01
     17.462  0.0000E+00  0.1005E+01
     17.539  0.0000E+00  0.1005E+01
     17.616  0.0000E+00  0.1005E+01
     17.693  0.0000E+00  0.1005E+01
     17.770  0.0000E+00  0.1005E+01
     17.847  0.0000E+00  0.1005E+01
     17.924  0.0000E+00  0.1005E+01
     18.001  0.0000E+00  0.1005E+01
     18.078  0.0000E+00  0.1005E+01
