   32   32  191    1
  0.1660753E+02  0.8100000E-09  0.8100000E-09  0.8100000E-09  0.5000000E-15
  1.000000000000000E-004
  CAR 
 unknown system                          
   96    1   96
 
  0.0000000E+00  0.0000000E+00  0.0000000E+00  0.1000000E+01
   1       -3.012336
   2       -0.712770
   3       -0.712770
   4       -0.712770
   5       -0.712770
   6       -0.712770
   7       -0.712770
   8        1.549130
   9        1.549130
  10        1.549130
  11        1.549130
  12        1.549130
  13        1.549130
  14        1.549130
  15        1.549130
  16        1.549130
  17        1.549130
  18        1.549130
  19        1.549130
  20        3.635802
  21        3.635802
  22        3.635802
  23        3.635802
  24        3.936508
  25        3.936508
  26        3.936508
  27        3.936508
  28        5.356681
  29        5.356681
  30        5.356681
  31        6.760968
  32        6.760968
  33        6.760968
  34        7.476237
  35        7.476237
  36        7.476237
  37        7.476237
  38        7.476237
  39        7.476237
  40        7.476237
  41        7.476237
  42        7.476237
  43        7.476237
  44        7.476237
  45        7.476237
  46        8.483168
  47        8.483168
  48        8.483168
  49        8.483168
  50        8.483168
  51        8.483168
  52        9.603410
  53        9.603410
  54        9.603410
  55        9.603410
  56        9.603410
  57        9.603410
  58        9.603410
  59        9.603410
  60        9.603410
  61        9.603410
  62        9.603410
  63        9.603410
  64        9.659183
  65        9.659183
  66        9.659183
  67        9.659183
  68        9.659183
  69        9.659183
  70       11.227422
  71       11.227422
  72       11.227422
  73       11.227422
  74       11.227422
  75       11.227422
  76       11.227422
  77       11.227422
  78       11.227422
  79       11.227422
  80       11.227422
  81       11.227422
  82       13.656504
  83       13.656504
  84       13.656504
  85       14.122319
  86       14.122319
  87       14.122319
  88       14.122319
  89       14.122319
  90       14.122319
  91       15.933606
  92       15.937976
  93       15.998918
  94       16.036863
  95       16.071463
  96       16.077855
