  31  31   0   0
  0.1706118E+02  0.8087052E-09  0.8087052E-09  0.8087052E-09  0.5000000E-15
  1.000000000000000E-004
  CAR 
 unknown system                          
     13.36902801     -4.95702607  301      7.85312654      1.00000000
     -4.957  0.0000E+00  0.0000E+00
     -4.896  0.0000E+00  0.0000E+00
     -4.835  0.0000E+00  0.0000E+00
     -4.774  0.0000E+00  0.0000E+00
     -4.713  0.0000E+00  0.0000E+00
     -4.652  0.0000E+00  0.0000E+00
     -4.591 -0.7238E-27 -0.4422E-28
     -4.529 -0.9283E-25 -0.5715E-26
     -4.468 -0.9925E-23 -0.6120E-24
     -4.407 -0.8788E-21 -0.5430E-22
     -4.346 -0.6443E-19 -0.3990E-20
     -4.285 -0.3910E-17 -0.2428E-18
     -4.224 -0.1964E-15 -0.1224E-16
     -4.163 -0.8159E-14 -0.5107E-15
     -4.102 -0.2722E-12 -0.1714E-13
     -4.041 -0.7693E-11 -0.4871E-12
     -3.980 -0.1797E-09 -0.1147E-10
     -3.919 -0.3462E-08 -0.2230E-09
     -3.857 -0.5495E-07 -0.3580E-08
     -3.796 -0.7175E-06 -0.4741E-07
     -3.735 -0.7692E-05 -0.5173E-06
     -3.674 -0.6755E-04 -0.4643E-05
     -3.613 -0.4842E-03 -0.3422E-04
     -3.552 -0.2819E-02 -0.2064E-03
     -3.491 -0.1323E-01 -0.1015E-02
     -3.430 -0.4948E-01 -0.4038E-02
     -3.369 -0.1443E+00 -0.1285E-01
     -3.308 -0.3134E+00 -0.3200E-01
     -3.247 -0.4453E+00 -0.5920E-01
     -3.186 -0.1600E+00 -0.6897E-01
     -3.124  0.1113E+01 -0.9553E-03
     -3.063  0.3598E+01  0.2188E+00
     -3.002  0.6516E+01  0.6168E+00
     -2.941  0.8265E+01  0.1122E+01
     -2.880  0.7687E+01  0.1591E+01
     -2.819  0.5177E+01  0.1908E+01
     -2.758  0.2295E+01  0.2048E+01
     -2.697  0.3573E+00  0.2070E+01
     -2.636 -0.3826E+00  0.2046E+01
     -2.575 -0.4051E+00  0.2021E+01
     -2.514 -0.2300E+00  0.2007E+01
     -2.452 -0.1070E+00  0.2001E+01
     -2.391 -0.9269E-01  0.1995E+01
     -2.330 -0.2044E+00  0.1983E+01
     -2.269 -0.4589E+00  0.1955E+01
     -2.208 -0.7432E+00  0.1909E+01
     -2.147 -0.5822E+00  0.1874E+01
     -2.086  0.8924E+00  0.1928E+01
     -2.025  0.4375E+01  0.2195E+01
     -1.964  0.9425E+01  0.2771E+01
     -1.903  0.1422E+02  0.3640E+01
     -1.842  0.1676E+02  0.4664E+01
     -1.781  0.1644E+02  0.5668E+01
     -1.719  0.1415E+02  0.6533E+01
     -1.658  0.1106E+02  0.7208E+01
     -1.597  0.7726E+01  0.7680E+01
     -1.536  0.4473E+01  0.7953E+01
     -1.475  0.1810E+01  0.8064E+01
     -1.414  0.1841E+00  0.8075E+01
     -1.353 -0.4304E+00  0.8049E+01
     -1.292 -0.4643E+00  0.8021E+01
     -1.231 -0.3822E+00  0.7997E+01
     -1.170 -0.4470E+00  0.7970E+01
     -1.109 -0.6566E+00  0.7930E+01
     -1.047 -0.6551E+00  0.7890E+01
     -0.986  0.3164E+00  0.7909E+01
     -0.925  0.3038E+01  0.8095E+01
     -0.864  0.7425E+01  0.8548E+01
     -0.803  0.1197E+02  0.9280E+01
     -0.742  0.1456E+02  0.1017E+02
     -0.681  0.1417E+02  0.1103E+02
     -0.620  0.1176E+02  0.1175E+02
     -0.559  0.9186E+01  0.1231E+02
     -0.498  0.7599E+01  0.1278E+02
     -0.437  0.6799E+01  0.1319E+02
     -0.376  0.5921E+01  0.1356E+02
     -0.314  0.4441E+01  0.1383E+02
     -0.253  0.2574E+01  0.1398E+02
     -0.192  0.9212E+00  0.1404E+02
     -0.131 -0.1351E+00  0.1403E+02
     -0.070 -0.6838E+00  0.1399E+02
     -0.009 -0.9889E+00  0.1393E+02
      0.052 -0.9635E+00  0.1387E+02
      0.113  0.1058E+00  0.1388E+02
      0.174  0.3167E+01  0.1407E+02
      0.235  0.8377E+01  0.1458E+02
      0.296  0.1434E+02  0.1546E+02
      0.358  0.1869E+02  0.1660E+02
      0.419  0.1985E+02  0.1781E+02
      0.480  0.1814E+02  0.1892E+02
      0.541  0.1519E+02  0.1985E+02
      0.602  0.1240E+02  0.2061E+02
      0.663  0.9940E+01  0.2121E+02
      0.724  0.7347E+01  0.2166E+02
      0.785  0.4493E+01  0.2194E+02
      0.846  0.1909E+01  0.2205E+02
      0.907  0.1707E+00  0.2206E+02
      0.968 -0.7035E+00  0.2202E+02
      1.029 -0.1142E+01  0.2195E+02
      1.091 -0.1402E+01  0.2187E+02
      1.152 -0.9857E+00  0.2181E+02
      1.213  0.1401E+01  0.2189E+02
      1.274  0.6957E+01  0.2232E+02
      1.335  0.1525E+02  0.2325E+02
      1.396  0.2345E+02  0.2468E+02
      1.457  0.2780E+02  0.2638E+02
      1.518  0.2643E+02  0.2799E+02
      1.579  0.2097E+02  0.2927E+02
      1.640  0.1511E+02  0.3020E+02
      1.701  0.1152E+02  0.3090E+02
      1.763  0.1035E+02  0.3153E+02
      1.824  0.1021E+02  0.3216E+02
      1.885  0.9828E+01  0.3276E+02
      1.946  0.8632E+01  0.3328E+02
      2.007  0.6584E+01  0.3369E+02
      2.068  0.4067E+01  0.3393E+02
      2.129  0.1760E+01  0.3404E+02
      2.190  0.2024E+00  0.3405E+02
      2.251 -0.5844E+00  0.3402E+02
      2.312 -0.9530E+00  0.3396E+02
      2.373 -0.1097E+01  0.3389E+02
      2.434 -0.5833E+00  0.3386E+02
      2.496  0.1578E+01  0.3395E+02
      2.557  0.6110E+01  0.3433E+02
      2.618  0.1233E+02  0.3508E+02
      2.679  0.1795E+02  0.3618E+02
      2.740  0.2039E+02  0.3742E+02
      2.801  0.1860E+02  0.3856E+02
      2.862  0.1370E+02  0.3940E+02
      2.923  0.7931E+01  0.3988E+02
      2.984  0.3255E+01  0.4008E+02
      3.045  0.4801E+00  0.4011E+02
      3.106 -0.6667E+00  0.4007E+02
      3.168 -0.9854E+00  0.4001E+02
      3.229 -0.1180E+01  0.3994E+02
      3.290 -0.1406E+01  0.3985E+02
      3.351 -0.9986E+00  0.3979E+02
      3.412  0.1438E+01  0.3988E+02
      3.473  0.7262E+01  0.4032E+02
      3.534  0.1639E+02  0.4132E+02
      3.595  0.2635E+02  0.4293E+02
      3.656  0.3299E+02  0.4495E+02
      3.717  0.3305E+02  0.4697E+02
      3.778  0.2667E+02  0.4859E+02
      3.839  0.1755E+02  0.4967E+02
      3.901  0.1033E+02  0.5030E+02
      3.962  0.7223E+01  0.5074E+02
      4.023  0.6905E+01  0.5116E+02
      4.084  0.6597E+01  0.5156E+02
      4.145  0.4794E+01  0.5186E+02
      4.206  0.2013E+01  0.5198E+02
      4.267 -0.4117E+00  0.5195E+02
      4.328 -0.1437E+01  0.5187E+02
      4.389 -0.2634E+00  0.5185E+02
      4.450  0.3896E+01  0.5209E+02
      4.511  0.1115E+02  0.5277E+02
      4.573  0.2002E+02  0.5399E+02
      4.634  0.2770E+02  0.5569E+02
      4.695  0.3180E+02  0.5763E+02
      4.756  0.3202E+02  0.5958E+02
      4.817  0.2994E+02  0.6141E+02
      4.878  0.2733E+02  0.6308E+02
      4.939  0.2480E+02  0.6460E+02
      5.000  0.2198E+02  0.6594E+02
      5.061  0.1876E+02  0.6709E+02
      5.122  0.1554E+02  0.6803E+02
      5.183  0.1260E+02  0.6880E+02
      5.244  0.9668E+01  0.6939E+02
      5.306  0.6439E+01  0.6979E+02
      5.367  0.3161E+01  0.6998E+02
      5.428  0.5788E+00  0.7002E+02
      5.489 -0.5779E+00  0.6998E+02
      5.550  0.1214E+00  0.6999E+02
      5.611  0.2698E+01  0.7015E+02
      5.672  0.6481E+01  0.7055E+02
      5.733  0.1005E+02  0.7116E+02
      5.794  0.1194E+02  0.7189E+02
      5.855  0.1161E+02  0.7260E+02
      5.916  0.9552E+01  0.7319E+02
      5.978  0.6717E+01  0.7360E+02
      6.039  0.4065E+01  0.7384E+02
      6.100  0.2563E+01  0.7400E+02
      6.161  0.2903E+01  0.7418E+02
      6.222  0.4813E+01  0.7447E+02
      6.283  0.6846E+01  0.7489E+02
      6.344  0.7279E+01  0.7534E+02
      6.405  0.5489E+01  0.7567E+02
      6.466  0.2537E+01  0.7583E+02
      6.527  0.6018E+00  0.7586E+02
      6.588  0.1792E+01  0.7597E+02
      6.649  0.6837E+01  0.7639E+02
      6.711  0.1417E+02  0.7725E+02
      6.772  0.2066E+02  0.7852E+02
      6.833  0.2426E+02  0.8000E+02
      6.894  0.2592E+02  0.8158E+02
      6.955  0.2791E+02  0.8329E+02
      7.016  0.3032E+02  0.8514E+02
      7.077  0.3036E+02  0.8700E+02
      7.138  0.2563E+02  0.8856E+02
      7.199  0.1704E+02  0.8960E+02
      7.260  0.8099E+01  0.9010E+02
      7.321  0.1880E+01  0.9021E+02
      7.383 -0.9549E+00  0.9015E+02
      7.444 -0.1612E+01  0.9005E+02
      7.505 -0.1557E+01  0.8996E+02
      7.566 -0.1385E+01  0.8987E+02
      7.627 -0.5784E+00  0.8984E+02
      7.688  0.1990E+01  0.8996E+02
      7.749  0.6949E+01  0.9039E+02
      7.810  0.1340E+02  0.9120E+02
      7.871  0.1921E+02  0.9238E+02
      7.932  0.2292E+02  0.9378E+02
      7.993  0.2519E+02  0.9532E+02
      8.054  0.2801E+02  0.9703E+02
      8.116  0.3210E+02  0.9899E+02
      8.177  0.3566E+02  0.1012E+03
      8.238  0.3578E+02  0.1034E+03
      8.299  0.3114E+02  0.1053E+03
      8.360  0.2305E+02  0.1067E+03
      8.421  0.1428E+02  0.1075E+03
      8.482  0.7109E+01  0.1080E+03
      8.543  0.2451E+01  0.1081E+03
      8.604  0.6357E-01  0.1081E+03
      8.665 -0.8239E+00  0.1081E+03
      8.726 -0.1049E+01  0.1080E+03
      8.788 -0.1192E+01  0.1079E+03
      8.849 -0.1246E+01  0.1079E+03
      8.910 -0.4151E+00  0.1078E+03
      8.971  0.2547E+01  0.1080E+03
      9.032  0.8123E+01  0.1085E+03
      9.093  0.1484E+02  0.1094E+03
      9.154  0.1992E+02  0.1106E+03
      9.215  0.2194E+02  0.1119E+03
      9.276  0.2239E+02  0.1133E+03
      9.337  0.2364E+02  0.1148E+03
      9.398  0.2545E+02  0.1163E+03
      9.459  0.2496E+02  0.1178E+03
      9.521  0.2007E+02  0.1191E+03
      9.582  0.1202E+02  0.1198E+03
      9.643  0.4116E+01  0.1201E+03
      9.704 -0.9959E+00  0.1200E+03
      9.765 -0.2235E+01  0.1199E+03
      9.826  0.9024E+00  0.1199E+03
      9.887  0.8675E+01  0.1204E+03
      9.948  0.1986E+02  0.1217E+03
     10.009  0.3096E+02  0.1235E+03
     10.070  0.3766E+02  0.1258E+03
     10.131  0.3739E+02  0.1281E+03
     10.193  0.3063E+02  0.1300E+03
     10.254  0.2026E+02  0.1312E+03
     10.315  0.1013E+02  0.1319E+03
     10.376  0.3760E+01  0.1321E+03
     10.437  0.3002E+01  0.1323E+03
     10.498  0.7384E+01  0.1327E+03
     10.559  0.1420E+02  0.1336E+03
     10.620  0.1963E+02  0.1348E+03
     10.681  0.2076E+02  0.1361E+03
     10.742  0.1752E+02  0.1371E+03
     10.803  0.1281E+02  0.1379E+03
     10.864  0.9932E+01  0.1385E+03
     10.926  0.9776E+01  0.1391E+03
     10.987  0.1064E+02  0.1398E+03
     11.048  0.1068E+02  0.1404E+03
     11.109  0.9898E+01  0.1410E+03
     11.170  0.9420E+01  0.1416E+03
     11.231  0.9657E+01  0.1422E+03
     11.292  0.9779E+01  0.1428E+03
     11.353  0.8791E+01  0.1433E+03
     11.414  0.6567E+01  0.1437E+03
     11.475  0.3844E+01  0.1440E+03
     11.536  0.1545E+01  0.1440E+03
     11.598  0.1729E+00  0.1441E+03
     11.659 -0.3301E+00  0.1440E+03
     11.720 -0.3368E+00  0.1440E+03
     11.781 -0.1972E+00  0.1440E+03
     11.842 -0.8387E-01  0.1440E+03
     11.903 -0.2760E-01  0.1440E+03
     11.964 -0.7212E-02  0.1440E+03
     12.025 -0.1517E-02  0.1440E+03
     12.086 -0.2587E-03  0.1440E+03
     12.147 -0.3599E-04  0.1440E+03
     12.208 -0.4096E-05  0.1440E+03
     12.269 -0.3824E-06  0.1440E+03
     12.331 -0.2935E-07  0.1440E+03
     12.392 -0.1854E-08  0.1440E+03
     12.453 -0.9655E-10  0.1440E+03
     12.514 -0.4147E-11  0.1440E+03
     12.575 -0.1490E-12  0.1440E+03
     12.636 -0.3635E-14  0.1440E+03
     12.697  0.0000E+00  0.1440E+03
     12.758  0.0000E+00  0.1440E+03
     12.819  0.0000E+00  0.1440E+03
     12.880  0.0000E+00  0.1440E+03
     12.941  0.0000E+00  0.1440E+03
     13.003  0.0000E+00  0.1440E+03
     13.064  0.0000E+00  0.1440E+03
     13.125  0.0000E+00  0.1440E+03
     13.186  0.0000E+00  0.1440E+03
     13.247  0.0000E+00  0.1440E+03
     13.308  0.0000E+00  0.1440E+03
     13.369  0.0000E+00  0.1440E+03
