   31   31    1    1
  0.1706118E+02  0.8087052E-09  0.8087052E-09  0.8087052E-09  0.5000000E-15
  1.000000000000000E-004
  CAR 
 unknown system                          
   92    2   72
 
  0.2500000E+00  0.2500000E+00  0.2500000E+00  0.5000000E+00
   1       -2.954150
   2       -1.923850
   3       -1.873327
   4       -1.639609
   5       -0.802613
   6       -0.749248
   7       -0.383977
   8        0.293447
   9        0.332219
  10        0.504251
  11        0.613214
  12        1.347337
  13        1.401293
  14        1.419555
  15        1.553543
  16        1.729932
  17        1.966894
  18        2.662664
  19        2.678332
  20        2.849902
  21        3.542052
  22        3.612931
  23        3.659769
  24        3.713527
  25        3.751532
  26        4.038227
  27        4.541071
  28        4.595162
  29        4.634849
  30        4.756456
  31        4.813337
  32        4.884271
  33        4.934506
  34        5.057821
  35        5.241444
  36        5.718940
  37        5.833369
  38        6.334846
  39        6.737026
  40        6.762727
  41        6.796575
  42        6.970828
  43        7.013524
  44        7.072754
  45        7.114919
  46        7.814520
  47        7.846104
  48        7.940556
  49        8.079827
  50        8.165148
  51        8.229248
  52        8.257336
  53        8.330388
  54        8.417430
  55        9.091339
  56        9.154381
  57        9.164661
  58        9.394814
  59        9.416684
  60        9.479067
  61        9.980249
  62        9.985770
  63       10.069103
  64       10.117701
  65       10.187990
  66       10.212586
  67       10.530905
  68       10.673368
  69       10.699723
  70       10.926746
  71       11.018057
  72       11.255118
 
 -0.2500000E+00  0.2500000E+00  0.2500000E+00  0.5000000E+00
   1       -2.957026
   2       -1.917108
   3       -1.816392
   4       -1.707062
   5       -0.801238
   6       -0.666335
   7       -0.520240
   8        0.298732
   9        0.399514
  10        0.433982
  11        0.685289
  12        1.375998
  13        1.460350
  14        1.472550
  15        1.506117
  16        1.726740
  17        1.871884
  18        2.630867
  19        2.736041
  20        2.773522
  21        3.552427
  22        3.625387
  23        3.653883
  24        3.688354
  25        3.764830
  26        4.006555
  27        4.571211
  28        4.653869
  29        4.676017
  30        4.724098
  31        4.743086
  32        4.915759
  33        4.934596
  34        5.055695
  35        5.180511
  36        5.731908
  37        5.952602
  38        6.262367
  39        6.755578
  40        6.775897
  41        6.881258
  42        7.005186
  43        7.022880
  44        7.058972
  45        7.135283
  46        7.846187
  47        7.912503
  48        7.978947
  49        8.068826
  50        8.128959
  51        8.138096
  52        8.181375
  53        8.226779
  54        8.276275
  55        9.134766
  56        9.158324
  57        9.303098
  58        9.397230
  59        9.402191
  60        9.481597
  61        9.985732
  62        9.994277
  63       10.011597
  64       10.073860
  65       10.119615
  66       10.178913
  67       10.572332
  68       10.621271
  69       10.664130
  70       10.956761
  71       11.194575
  72       11.369028
