 107 107   0   0
  0.1212439E+02  0.1090639E-08  0.1090639E-08  0.1090639E-08  0.5000000E-15
  1.000000000000000E-004
  CAR 
 unknown system                          
     26.91516729     -7.52966070  301      3.68587761      1.00000000
     -7.530  0.0000E+00  0.0000E+00  0.0000E+00  0.0000E+00
     -7.415  0.0000E+00  0.0000E+00  0.0000E+00  0.0000E+00
     -7.300  0.0000E+00  0.0000E+00  0.0000E+00  0.0000E+00
     -7.185  0.0000E+00  0.0000E+00  0.0000E+00  0.0000E+00
     -7.070  0.0000E+00  0.0000E+00  0.0000E+00  0.0000E+00
     -6.956  0.0000E+00  0.0000E+00  0.0000E+00  0.0000E+00
     -6.841  0.0000E+00  0.0000E+00  0.0000E+00  0.0000E+00
     -6.726  0.0000E+00  0.0000E+00  0.0000E+00  0.0000E+00
     -6.611  0.0000E+00  0.0000E+00  0.0000E+00  0.0000E+00
     -6.496  0.0000E+00  0.0000E+00  0.0000E+00  0.0000E+00
     -6.381  0.0000E+00  0.0000E+00  0.0000E+00  0.0000E+00
     -6.267  0.0000E+00  0.0000E+00  0.0000E+00  0.0000E+00
     -6.152  0.0000E+00  0.0000E+00  0.0000E+00  0.0000E+00
     -6.037  0.0000E+00  0.0000E+00  0.0000E+00  0.0000E+00
     -5.922  0.0000E+00  0.0000E+00  0.0000E+00  0.0000E+00
     -5.807  0.0000E+00  0.0000E+00  0.0000E+00  0.0000E+00
     -5.693  0.0000E+00  0.0000E+00  0.0000E+00  0.0000E+00
     -5.578  0.0000E+00  0.0000E+00  0.0000E+00  0.0000E+00
     -5.463  0.1156E+01  0.1154E+01  0.7277E-01  0.7257E-01
     -5.348  0.2938E+01  0.2937E+01  0.3364E+00  0.3358E+00
     -5.233  0.2935E+01  0.2935E+01  0.6823E+00  0.6817E+00
     -5.119  0.1099E+01  0.1101E+01  0.9426E+00  0.9423E+00
     -5.004  0.3833E+01  0.3829E+01  0.1159E+01  0.1158E+01
     -4.889  0.3385E+01  0.3388E+01  0.1707E+01  0.1706E+01
     -4.774  0.3036E+01  0.3036E+01  0.2109E+01  0.2108E+01
     -4.659  0.2189E+01  0.2181E+01  0.2464E+01  0.2464E+01
     -4.544  0.4593E+01  0.4591E+01  0.2961E+01  0.2960E+01
     -4.430  0.4357E+01  0.4357E+01  0.3718E+01  0.3717E+01
     -4.315  0.2436E+01  0.2430E+01  0.4170E+01  0.4169E+01
     -4.200  0.5085E+01  0.5086E+01  0.4607E+01  0.4606E+01
     -4.085  0.3885E+01  0.3887E+01  0.5223E+01  0.5222E+01
     -3.970  0.4301E+01  0.4314E+01  0.6143E+01  0.6143E+01
     -3.856  0.1329E+02  0.1323E+02  0.6761E+01  0.6759E+01
     -3.741  0.3231E+01  0.3203E+01  0.7257E+01  0.7256E+01
     -3.626  0.1012E+01  0.1005E+01  0.8002E+01  0.8002E+01
     -3.511  0.3506E+01  0.3501E+01  0.8873E+01  0.8872E+01
     -3.396  0.8639E+01  0.8660E+01  0.9647E+01  0.9646E+01
     -3.281  0.4399E+01  0.4400E+01  0.1039E+02  0.1038E+02
     -3.167  0.9569E+01  0.9540E+01  0.1109E+02  0.1109E+02
     -3.052  0.6808E+01  0.6883E+01  0.1237E+02  0.1236E+02
     -2.937  0.1066E+02  0.1075E+02  0.1361E+02  0.1361E+02
     -2.822  0.8754E+01  0.8763E+01  0.1454E+02  0.1454E+02
     -2.707  0.6769E+01  0.6774E+01  0.1586E+02  0.1585E+02
     -2.593  0.3380E+01  0.3377E+01  0.1644E+02  0.1644E+02
     -2.478  0.8216E+01  0.8197E+01  0.1702E+02  0.1702E+02
     -2.363  0.1882E+02  0.1883E+02  0.1894E+02  0.1893E+02
     -2.248  0.9591E+01  0.9587E+01  0.2074E+02  0.2074E+02
     -2.133  0.8960E+01  0.8960E+01  0.2197E+02  0.2197E+02
     -2.018  0.1880E+02  0.1887E+02  0.2300E+02  0.2300E+02
     -1.904  0.1588E+02  0.1585E+02  0.2471E+02  0.2471E+02
     -1.789  0.1393E+02  0.1394E+02  0.2646E+02  0.2645E+02
     -1.674  0.2280E+02  0.2286E+02  0.2910E+02  0.2910E+02
     -1.559  0.4799E+01  0.4799E+01  0.3101E+02  0.3101E+02
     -1.444  0.2754E+02  0.2689E+02  0.3264E+02  0.3264E+02
     -1.330  0.3911E+02  0.3913E+02  0.3692E+02  0.3692E+02
     -1.215  0.3480E+02  0.3480E+02  0.4161E+02  0.4161E+02
     -1.100  0.6813E+02  0.6812E+02  0.4707E+02  0.4707E+02
     -0.985  0.4884E+02  0.4852E+02  0.5463E+02  0.5463E+02
     -0.870  0.4423E+02  0.4429E+02  0.6154E+02  0.6154E+02
     -0.756  0.4755E+02  0.4751E+02  0.6930E+02  0.6930E+02
     -0.641  0.7674E+02  0.7679E+02  0.7868E+02  0.7868E+02
     -0.526  0.6932E+02  0.6938E+02  0.8982E+02  0.8982E+02
     -0.411  0.1421E+03  0.1423E+03  0.1032E+03  0.1032E+03
     -0.296  0.1802E+03  0.1785E+03  0.1187E+03  0.1187E+03
     -0.181  0.1671E+03  0.1684E+03  0.1324E+03  0.1324E+03
     -0.067  0.1696E+03  0.1685E+03  0.1457E+03  0.1457E+03
      0.048  0.1294E+03  0.1286E+03  0.1598E+03  0.1598E+03
      0.163  0.1109E+03  0.1109E+03  0.1729E+03  0.1729E+03
      0.278  0.1160E+03  0.1160E+03  0.1893E+03  0.1893E+03
      0.393  0.1948E+03  0.1257E+04  0.2093E+03  0.2093E+03
      0.507  0.1879E+03  0.1880E+03  0.2272E+03  0.2273E+03
      0.622  0.1980E+03  0.1977E+03  0.2509E+03  0.2509E+03
      0.737  0.3293E+03  0.3451E+03  0.2754E+03  0.2754E+03
      0.852  0.2653E+03  0.2744E+03  0.3032E+03  0.3032E+03
      0.967  0.1359E+03  0.1357E+03  0.3254E+03  0.3254E+03
      1.082  0.1347E+03  0.1344E+03  0.3436E+03  0.3436E+03
      1.196  0.1337E+03  0.1332E+03  0.3604E+03  0.3604E+03
      1.311  0.1614E+03  0.1580E+03  0.3798E+03  0.3798E+03
      1.426  0.1883E+03  0.1889E+03  0.4040E+03  0.4040E+03
      1.541  0.2334E+03  0.2347E+03  0.4268E+03  0.4268E+03
      1.656  0.1589E+03  0.1580E+03  0.4469E+03  0.4469E+03
      1.770  0.1831E+03  0.1866E+03  0.4674E+03  0.4674E+03
      1.885  0.2327E+03  0.2347E+03  0.4909E+03  0.4909E+03
      2.000  0.4015E+03  0.3886E+03  0.5235E+03  0.5235E+03
      2.115  0.1297E+03  0.1295E+03  0.5507E+03  0.5507E+03
      2.230  0.2177E+02  0.2176E+02  0.5573E+03  0.5573E+03
      2.345  0.1643E+02  0.1643E+02  0.5595E+03  0.5595E+03
      2.459  0.1880E+02  0.1880E+02  0.5629E+03  0.5629E+03
      2.574  0.1812E+02  0.1817E+02  0.5646E+03  0.5646E+03
      2.689  0.6925E+01  0.6885E+01  0.5663E+03  0.5663E+03
      2.804  0.2616E+02  0.2617E+02  0.5690E+03  0.5690E+03
      2.919  0.1822E+02  0.1820E+02  0.5718E+03  0.5718E+03
      3.033  0.5727E+01  0.5727E+01  0.5730E+03  0.5730E+03
      3.148  0.1356E+03  0.1278E+03  0.5754E+03  0.5754E+03
      3.263  0.1661E+02  0.1659E+02  0.5779E+03  0.5779E+03
      3.378  0.1570E+02  0.1569E+02  0.5802E+03  0.5802E+03
      3.493  0.1342E+02  0.1343E+02  0.5820E+03  0.5820E+03
      3.608  0.1133E+02  0.1134E+02  0.5836E+03  0.5836E+03
      3.722  0.1435E+02  0.1435E+02  0.5850E+03  0.5850E+03
      3.837  0.1532E+02  0.1533E+02  0.5870E+03  0.5870E+03
      3.952  0.3378E+02  0.3393E+02  0.5885E+03  0.5885E+03
      4.067  0.2896E+02  0.2895E+02  0.5916E+03  0.5916E+03
      4.182  0.1096E+02  0.1095E+02  0.5933E+03  0.5933E+03
      4.296  0.5576E+01  0.5572E+01  0.5942E+03  0.5942E+03
      4.411  0.1201E+02  0.1201E+02  0.5953E+03  0.5953E+03
      4.526  0.1659E+02  0.1517E+02  0.5971E+03  0.5971E+03
      4.641  0.1114E+02  0.1114E+02  0.5988E+03  0.5988E+03
      4.756  0.1978E+02  0.1978E+02  0.6008E+03  0.6008E+03
      4.870  0.1551E+02  0.1550E+02  0.6030E+03  0.6030E+03
      4.985  0.1705E+02  0.1706E+02  0.6047E+03  0.6047E+03
      5.100  0.1644E+02  0.1643E+02  0.6065E+03  0.6065E+03
      5.215  0.9777E+01  0.9763E+01  0.6079E+03  0.6079E+03
      5.330  0.1222E+02  0.1222E+02  0.6092E+03  0.6092E+03
      5.445  0.7755E+01  0.7757E+01  0.6105E+03  0.6105E+03
      5.559  0.1729E+02  0.1733E+02  0.6120E+03  0.6120E+03
      5.674  0.6247E+01  0.6253E+01  0.6131E+03  0.6131E+03
      5.789  0.1280E+02  0.1277E+02  0.6146E+03  0.6146E+03
      5.904  0.1516E+02  0.1521E+02  0.6168E+03  0.6168E+03
      6.019  0.1087E+02  0.1084E+02  0.6181E+03  0.6181E+03
      6.133  0.9024E+01  0.9024E+01  0.6192E+03  0.6192E+03
      6.248  0.1316E+02  0.1317E+02  0.6208E+03  0.6208E+03
      6.363  0.1402E+02  0.1422E+02  0.6221E+03  0.6221E+03
      6.478  0.8280E+01  0.8270E+01  0.6229E+03  0.6229E+03
      6.593  0.1069E+02  0.1069E+02  0.6241E+03  0.6241E+03
      6.708  0.9855E+01  0.9859E+01  0.6253E+03  0.6253E+03
      6.822  0.5671E+01  0.5670E+01  0.6263E+03  0.6263E+03
      6.937  0.1482E+02  0.1482E+02  0.6274E+03  0.6274E+03
      7.052  0.1097E+02  0.1101E+02  0.6286E+03  0.6286E+03
      7.167  0.9788E+01  0.9788E+01  0.6300E+03  0.6300E+03
      7.282  0.1087E+02  0.1092E+02  0.6315E+03  0.6315E+03
      7.396  0.8435E+01  0.8437E+01  0.6329E+03  0.6329E+03
      7.511  0.5936E+01  0.5937E+01  0.6337E+03  0.6337E+03
      7.626  0.1128E+02  0.1128E+02  0.6348E+03  0.6348E+03
      7.741  0.1733E+02  0.1726E+02  0.6367E+03  0.6367E+03
      7.856  0.1518E+02  0.1518E+02  0.6392E+03  0.6392E+03
      7.971  0.1937E+02  0.1946E+02  0.6411E+03  0.6411E+03
      8.085  0.1005E+02  0.1007E+02  0.6424E+03  0.6424E+03
      8.200  0.1578E+02  0.1576E+02  0.6439E+03  0.6439E+03
      8.315  0.1976E+02  0.1968E+02  0.6461E+03  0.6461E+03
      8.430  0.1284E+02  0.1283E+02  0.6479E+03  0.6479E+03
      8.545  0.1815E+02  0.1815E+02  0.6497E+03  0.6497E+03
      8.659  0.1263E+02  0.1265E+02  0.6518E+03  0.6518E+03
      8.774  0.2376E+01  0.2376E+01  0.6532E+03  0.6532E+03
      8.889  0.1671E+02  0.1674E+02  0.6549E+03  0.6549E+03
      9.004  0.3684E+01  0.3707E+01  0.6572E+03  0.6572E+03
      9.119  0.8943E+01  0.8947E+01  0.6579E+03  0.6579E+03
      9.233  0.1221E+02  0.1202E+02  0.6592E+03  0.6592E+03
      9.348  0.1548E+02  0.1543E+02  0.6611E+03  0.6611E+03
      9.463  0.1248E+02  0.1247E+02  0.6627E+03  0.6627E+03
      9.578  0.1970E+02  0.1970E+02  0.6648E+03  0.6648E+03
      9.693  0.8216E+01  0.8219E+01  0.6668E+03  0.6668E+03
      9.808  0.9195E+01  0.9192E+01  0.6678E+03  0.6678E+03
      9.922  0.1227E+02  0.1228E+02  0.6691E+03  0.6691E+03
     10.037  0.1687E+02  0.1682E+02  0.6709E+03  0.6709E+03
     10.152  0.1001E+02  0.1001E+02  0.6726E+03  0.6726E+03
     10.267  0.7854E+01  0.7840E+01  0.6736E+03  0.6736E+03
     10.382  0.1183E+02  0.1189E+02  0.6751E+03  0.6751E+03
     10.496  0.1139E+02  0.1139E+02  0.6766E+03  0.6766E+03
     10.611  0.1037E+02  0.1037E+02  0.6781E+03  0.6781E+03
     10.726  0.5825E+02  0.6552E+02  0.6797E+03  0.6797E+03
     10.841  0.1436E+02  0.1437E+02  0.6817E+03  0.6817E+03
     10.956  0.3666E+02  0.1765E+02  0.6836E+03  0.6836E+03
     11.071  0.1297E+02  0.1297E+02  0.6858E+03  0.6858E+03
     11.185  0.2217E+02  0.2218E+02  0.6879E+03  0.6879E+03
     11.300  0.7238E+01  0.7214E+01  0.6898E+03  0.6898E+03
     11.415  0.1534E+02  0.1528E+02  0.6914E+03  0.6914E+03
     11.530  0.1261E+02  0.1261E+02  0.6934E+03  0.6934E+03
     11.645  0.1589E+02  0.1590E+02  0.6950E+03  0.6950E+03
     11.759  0.1647E+02  0.1670E+02  0.6968E+03  0.6968E+03
     11.874  0.1627E+02  0.1627E+02  0.6989E+03  0.6989E+03
     11.989  0.2399E+02  0.2400E+02  0.7009E+03  0.7009E+03
     12.104  0.2230E+02  0.2236E+02  0.7035E+03  0.7035E+03
     12.219  0.2946E+02  0.2948E+02  0.7065E+03  0.7065E+03
     12.334  0.1915E+02  0.1914E+02  0.7093E+03  0.7093E+03
     12.448  0.1748E+02  0.1742E+02  0.7112E+03  0.7112E+03
     12.563  0.1549E+02  0.1548E+02  0.7129E+03  0.7129E+03
     12.678  0.1677E+02  0.1679E+02  0.7148E+03  0.7148E+03
     12.793  0.3877E+02  0.3923E+02  0.7174E+03  0.7173E+03
     12.908  0.2123E+02  0.2126E+02  0.7202E+03  0.7202E+03
     13.022  0.1608E+02  0.1608E+02  0.7226E+03  0.7226E+03
     13.137  0.1463E+02  0.1463E+02  0.7245E+03  0.7245E+03
     13.252  0.2237E+02  0.2225E+02  0.7264E+03  0.7264E+03
     13.367  0.1633E+02  0.1633E+02  0.7279E+03  0.7279E+03
     13.482  0.1463E+02  0.1462E+02  0.7297E+03  0.7297E+03
     13.597  0.3233E+02  0.3225E+02  0.7319E+03  0.7319E+03
     13.711  0.1510E+02  0.1505E+02  0.7347E+03  0.7347E+03
     13.826  0.1943E+02  0.1946E+02  0.7374E+03  0.7374E+03
     13.941  0.3642E+02  0.3647E+02  0.7396E+03  0.7396E+03
     14.056  0.2715E+02  0.2742E+02  0.7424E+03  0.7424E+03
     14.171  0.1582E+02  0.1580E+02  0.7445E+03  0.7445E+03
     14.285  0.1074E+02  0.1074E+02  0.7471E+03  0.7471E+03
     14.400  0.9203E+01  0.9210E+01  0.7491E+03  0.7491E+03
     14.515  0.2303E+02  0.2312E+02  0.7513E+03  0.7513E+03
     14.630  0.2468E+02  0.2465E+02  0.7536E+03  0.7536E+03
     14.745  0.2179E+02  0.2177E+02  0.7564E+03  0.7564E+03
     14.859  0.2087E+02  0.2066E+02  0.7588E+03  0.7588E+03
     14.974  0.2162E+02  0.2161E+02  0.7608E+03  0.7608E+03
     15.089  0.1543E+02  0.1543E+02  0.7633E+03  0.7633E+03
     15.204  0.1986E+02  0.1987E+02  0.7662E+03  0.7662E+03
     15.319  0.1702E+02  0.1705E+02  0.7688E+03  0.7688E+03
     15.434  0.1722E+02  0.1722E+02  0.7706E+03  0.7706E+03
     15.548  0.1929E+02  0.1931E+02  0.7727E+03  0.7727E+03
     15.663  0.2212E+02  0.5169E+02  0.7759E+03  0.7759E+03
     15.778  0.1463E+02  0.1462E+02  0.7773E+03  0.7773E+03
     15.893  0.3839E+02  0.4064E+02  0.7796E+03  0.7796E+03
     16.008  0.2435E+02  0.2431E+02  0.7829E+03  0.7829E+03
     16.122  0.1786E+02  0.1784E+02  0.7855E+03  0.7855E+03
     16.237  0.2168E+02  0.2054E+02  0.7880E+03  0.7880E+03
     16.352  0.1083E+02  0.1083E+02  0.7903E+03  0.7903E+03
     16.467  0.3195E+02  0.3165E+02  0.7931E+03  0.7931E+03
     16.582  0.1307E+02  0.1308E+02  0.7957E+03  0.7957E+03
     16.697  0.3139E+02  0.3178E+02  0.7982E+03  0.7981E+03
     16.811  0.2667E+02  0.2671E+02  0.8014E+03  0.8014E+03
     16.926  0.2632E+02  0.2638E+02  0.8048E+03  0.8048E+03
     17.041  0.3151E+02  0.3153E+02  0.8077E+03  0.8077E+03
     17.156  0.1899E+02  0.1894E+02  0.8106E+03  0.8106E+03
     17.271  0.1732E+02  0.1733E+02  0.8131E+03  0.8131E+03
     17.385  0.2102E+02  0.2101E+02  0.8157E+03  0.8157E+03
     17.500  0.1300E+02  0.1302E+02  0.8187E+03  0.8187E+03
     17.615  0.1256E+02  0.1256E+02  0.8210E+03  0.8210E+03
     17.730  0.1630E+02  0.1615E+02  0.8228E+03  0.8228E+03
     17.845  0.1901E+02  0.1906E+02  0.8256E+03  0.8256E+03
     17.960  0.1403E+02  0.1398E+02  0.8277E+03  0.8277E+03
     18.074  0.3306E+02  0.3316E+02  0.8308E+03  0.8308E+03
     18.189  0.2744E+02  0.2742E+02  0.8342E+03  0.8342E+03
     18.304  0.1860E+02  0.1856E+02  0.8364E+03  0.8364E+03
     18.419  0.1797E+02  0.1798E+02  0.8392E+03  0.8392E+03
     18.534  0.1414E+02  0.1460E+02  0.8412E+03  0.8412E+03
     18.648  0.1713E+02  0.1699E+02  0.8431E+03  0.8431E+03
     18.763  0.2079E+02  0.2078E+02  0.8456E+03  0.8456E+03
     18.878  0.2421E+02  0.2417E+02  0.8487E+03  0.8487E+03
     18.993  0.1683E+02  0.1683E+02  0.8514E+03  0.8514E+03
     19.108  0.1371E+02  0.1372E+02  0.8533E+03  0.8533E+03
     19.222  0.2282E+02  0.2282E+02  0.8552E+03  0.8552E+03
     19.337  0.2381E+02  0.2379E+02  0.8578E+03  0.8578E+03
     19.452  0.2210E+02  0.2214E+02  0.8605E+03  0.8605E+03
     19.567  0.2152E+02  0.2154E+02  0.8633E+03  0.8633E+03
     19.682  0.1828E+02  0.1828E+02  0.8657E+03  0.8657E+03
     19.797  0.3398E+02  0.1497E+02  0.8679E+03  0.8679E+03
     19.911  0.1771E+02  0.1775E+02  0.8702E+03  0.8702E+03
     20.026  0.1489E+02  0.1488E+02  0.8722E+03  0.8722E+03
     20.141  0.9895E+01  0.9895E+01  0.8737E+03  0.8737E+03
     20.256  0.2009E+02  0.2004E+02  0.8754E+03  0.8754E+03
     20.371  0.2057E+02  0.2053E+02  0.8773E+03  0.8773E+03
     20.485  0.2085E+02  0.2084E+02  0.8797E+03  0.8797E+03
     20.600  0.1525E+02  0.1525E+02  0.8818E+03  0.8818E+03
     20.715  0.1525E+02  0.1526E+02  0.8836E+03  0.8836E+03
     20.830  0.1351E+02  0.1351E+02  0.8854E+03  0.8854E+03
     20.945  0.1604E+02  0.1603E+02  0.8874E+03  0.8874E+03
     21.060  0.1559E+02  0.1559E+02  0.8896E+03  0.8896E+03
     21.174  0.1770E+02  0.1771E+02  0.8916E+03  0.8916E+03
     21.289  0.1973E+02  0.1966E+02  0.8939E+03  0.8939E+03
     21.404  0.1559E+02  0.1559E+02  0.8961E+03  0.8961E+03
     21.519  0.1683E+02  0.1682E+02  0.8981E+03  0.8981E+03
     21.634  0.1895E+02  0.1900E+02  0.9001E+03  0.9001E+03
     21.748  0.1846E+02  0.1846E+02  0.9027E+03  0.9027E+03
     21.863  0.2273E+02  0.2265E+02  0.9049E+03  0.9049E+03
     21.978  0.1563E+02  0.1563E+02  0.9069E+03  0.9069E+03
     22.093  0.1492E+02  0.1492E+02  0.9088E+03  0.9088E+03
     22.208  0.1670E+02  0.1669E+02  0.9108E+03  0.9108E+03
     22.323  0.1779E+02  0.1781E+02  0.9129E+03  0.9129E+03
     22.437  0.2154E+02  0.2163E+02  0.9152E+03  0.9152E+03
     22.552  0.2051E+02  0.2042E+02  0.9173E+03  0.9173E+03
     22.667  0.1724E+02  0.1723E+02  0.9194E+03  0.9194E+03
     22.782  0.1974E+02  0.1974E+02  0.9217E+03  0.9217E+03
     22.897  0.2298E+02  0.2298E+02  0.9245E+03  0.9245E+03
     23.011  0.2273E+02  0.2274E+02  0.9275E+03  0.9275E+03
     23.126  0.2175E+02  0.2175E+02  0.9309E+03  0.9309E+03
     23.241  0.1486E+02  0.1487E+02  0.9327E+03  0.9327E+03
     23.356  0.2464E+02  0.2480E+02  0.9350E+03  0.9350E+03
     23.471  0.2676E+02  0.2678E+02  0.9382E+03  0.9382E+03
     23.586  0.2561E+02  0.2562E+02  0.9411E+03  0.9411E+03
     23.700  0.1763E+02  0.1764E+02  0.9438E+03  0.9438E+03
     23.815  0.2092E+02  0.2086E+02  0.9461E+03  0.9461E+03
     23.930  0.3942E+02  0.3953E+02  0.9494E+03  0.9494E+03
     24.045  0.2690E+02  0.2692E+02  0.9528E+03  0.9528E+03
     24.160  0.2472E+02  0.2477E+02  0.9562E+03  0.9562E+03
     24.274  0.2188E+02  0.2183E+02  0.9585E+03  0.9585E+03
     24.389  0.2935E+02  0.2934E+02  0.9619E+03  0.9619E+03
     24.504  0.2055E+02  0.2056E+02  0.9660E+03  0.9660E+03
     24.619  0.1203E+02  0.1189E+02  0.9679E+03  0.9679E+03
     24.734  0.2222E+02  0.2207E+02  0.9702E+03  0.9701E+03
     24.848  0.9559E+01  0.4944E+01  0.9720E+03  0.9718E+03
     24.963  0.0000E+00  0.0000E+00  0.9720E+03  0.9720E+03
     25.078  0.0000E+00  0.0000E+00  0.9720E+03  0.9720E+03
     25.193  0.0000E+00  0.0000E+00  0.9720E+03  0.9720E+03
     25.308  0.0000E+00  0.0000E+00  0.9720E+03  0.9720E+03
     25.423  0.0000E+00  0.0000E+00  0.9720E+03  0.9720E+03
     25.537  0.0000E+00  0.0000E+00  0.9720E+03  0.9720E+03
     25.652  0.0000E+00  0.0000E+00  0.9720E+03  0.9720E+03
     25.767  0.0000E+00  0.0000E+00  0.9720E+03  0.9720E+03
     25.882  0.0000E+00  0.0000E+00  0.9720E+03  0.9720E+03
     25.997  0.0000E+00  0.0000E+00  0.9720E+03  0.9720E+03
     26.111  0.0000E+00  0.0000E+00  0.9720E+03  0.9720E+03
     26.226  0.0000E+00  0.0000E+00  0.9720E+03  0.9720E+03
     26.341  0.0000E+00  0.0000E+00  0.9720E+03  0.9720E+03
     26.456  0.0000E+00  0.0000E+00  0.9720E+03  0.9720E+03
     26.571  0.0000E+00  0.0000E+00  0.9720E+03  0.9720E+03
     26.686  0.0000E+00  0.0000E+00  0.9720E+03  0.9720E+03
     26.800  0.0000E+00  0.0000E+00  0.9720E+03  0.9720E+03
     26.915  0.0000E+00  0.0000E+00  0.9720E+03  0.9720E+03
