unknown system                          
           1
    10.906394    0.000000    0.000000
     0.000000   10.906394    0.000000
     0.000000    0.000000   10.906394
   Al   Mg
   1 106
Direct configuration=     1
   0.00000000  0.00399592  0.00399592
   0.00000000  0.00216890  0.33137451
   0.00000000  0.00052498  0.66629173
   0.00000000  0.33137451  0.00216890
   0.00000000  0.33130833  0.33130833
   0.00000000  0.33321525  0.66636602
   0.00000000  0.66629173  0.00052498
   0.00000000  0.66636602  0.33321525
   0.00000000  0.66623909  0.66623909
   0.33343922  0.00048254  0.00048254
   0.33306803  0.00054348  0.33331116
   0.33339017  0.00030351  0.66612748
   0.33306803  0.33331116  0.00054348
   0.33265908  0.33299862  0.33299862
   0.33318853  0.33343878  0.66629470
   0.33339017  0.66612748  0.00030351
   0.33318853  0.66629470  0.33343878
   0.33330460  0.66635190  0.66635190
   0.66656078  0.00048254  0.00048254
   0.66693197  0.00054348  0.33331116
   0.66660983  0.00030351  0.66612748
   0.66693197  0.33331116  0.00054348
   0.66734092  0.33299862  0.33299862
   0.66681147  0.33343878  0.66629470
   0.66660983  0.66612748  0.00030351
   0.66681147  0.66629470  0.33343878
   0.66669540  0.66635190  0.66635190
   0.16648432  0.00167282  0.16755980
   0.00000000  0.16687040  0.49880409
   0.00000000  0.16740313  0.83426806
   0.00000000  0.49880409  0.16687040
   0.00000000  0.49948807  0.49948807
   0.00000000  0.49967702  0.83347789
   0.00000000  0.83426806  0.16740313
   0.00000000  0.83347789  0.49967702
   0.00000000  0.83341051  0.83341051
   0.33272373  0.16708909  0.16708909
   0.33314727  0.16693627  0.49969987
   0.33367049  0.16712551  0.83296400
   0.33314727  0.49969987  0.16693627
   0.33310720  0.49961403  0.49961403
   0.33324890  0.49971398  0.83345496
   0.33367049  0.83296400  0.16712551
   0.33324890  0.83345496  0.49971398
   0.33343680  0.83325069  0.83325069
   0.66727627  0.16708909  0.16708909
   0.66685273  0.16693627  0.49969987
   0.66632951  0.16712551  0.83296400
   0.66685273  0.49969987  0.16693627
   0.66689280  0.49961403  0.49961403
   0.66675110  0.49971398  0.83345496
   0.66632951  0.83296400  0.16712551
   0.66675110  0.83345496  0.49971398
   0.66656320  0.83325069  0.83325069
   0.16626261  0.00057067  0.49911015
   0.16711635  0.00046271  0.83318709
   0.16504787  0.33157547  0.16689040
   0.16619988  0.33292875  0.49909495
   0.16654864  0.33319795  0.83373177
   0.16644763  0.66643225  0.16705371
   0.16651993  0.66635972  0.49958563
   0.16672393  0.66630226  0.83334263
   0.50000000  0.00045638  0.16705595
   0.50000000  0.00035750  0.49962432
   0.50000000  0.00028014  0.83331842
   0.50000000  0.33323090  0.16696402
   0.50000000  0.33327447  0.49949759
   0.50000000  0.33349079  0.83350379
   0.50000000  0.66614675  0.16697601
   0.50000000  0.66643629  0.49976296
   0.50000000  0.66634982  0.83335847
   0.83351568  0.00167282  0.16755980
   0.83373739  0.00057067  0.49911015
   0.83288365  0.00046271  0.83318709
   0.83495213  0.33157547  0.16689040
   0.83380012  0.33292875  0.49909495
   0.83345136  0.33319795  0.83373177
   0.83355237  0.66643225  0.16705371
   0.83348007  0.66635972  0.49958563
   0.83327607  0.66630226  0.83334263
   0.16648432  0.16755980  0.00167282
   0.16504787  0.16689040  0.33157547
   0.16644763  0.16705371  0.66643225
   0.16626261  0.49911015  0.00057067
   0.16619988  0.49909495  0.33292875
   0.16651993  0.49958563  0.66635972
   0.16711635  0.83318709  0.00046271
   0.16654864  0.83373177  0.33319795
   0.16672393  0.83334263  0.66630226
   0.50000000  0.16705595  0.00045638
   0.50000000  0.16696402  0.33323090
   0.50000000  0.16697601  0.66614675
   0.50000000  0.49962432  0.00035750
   0.50000000  0.49949759  0.33327447
   0.50000000  0.49976296  0.66643629
   0.50000000  0.83331842  0.00028014
   0.50000000  0.83350379  0.33349079
   0.50000000  0.83335847  0.66634982
   0.83351568  0.16755980  0.00167282
   0.83495213  0.16689040  0.33157547
   0.83355237  0.16705371  0.66643225
   0.83373739  0.49911015  0.00057067
   0.83380012  0.49909495  0.33292875
   0.83348007  0.49958563  0.66635972
   0.83288365  0.83318709  0.00046271
   0.83345136  0.83373177  0.33319795
   0.83327607  0.83334263  0.66630226
