 vasp.5.2.2 15Apr09 complex 
 executed on             LinuxIFC date 2011.11.10  10:51:29
 running on    6 nodes
 each image running on    2 nodes
 distr:  one band on    2 nodes,    1 groups


--------------------------------------------------------------------------------------------------------


 INCAR:
 POTCAR:   PAW_PBE Al 04Jan2001                   
 POTCAR:   PAW_PBE Al 04Jan2001                   
   VRHFIN =Al: s2p1                                                             
   LEXCH  = PE                                                                  
   EATOM  =    53.5387 eV,    3.9350 Ry                                         
                                                                                
   TITEL  = PAW_PBE Al 04Jan2001                                                
   LULTRA =        F    use ultrasoft PP ?                                      
   IUNSCR =        1    unscreen: 0-lin 1-nonlin 2-no                           
   RPACOR =    1.500    partial core radius                                     
   POMASS =   26.982; ZVAL   =    3.000    mass and valenz                      
   RCORE  =    1.900    outmost cutoff radius                                   
   RWIGS  =    2.650; RWIGS  =    1.402    wigner-seitz radius (au A)           
   ENMAX  =  240.300; ENMIN  =  180.225 eV                                      
   ICORE  =        2    local potential                                         
   LCOR   =        T    correct aug charges                                     
   LPAW   =        T    paw PP                                                  
   EAUG   =  291.052                                                            
   DEXC   =    -.041                                                            
   RMAX   =    2.974    core radius for proj-oper                               
   RAUG   =    1.300    factor for augmentation sphere                          
   RDEP   =    1.966    radius for radial grids                                 
   QCUT   =   -4.203; QGAM   =    8.405    optimization parameters              
                                                                                
   Description                                                                  
     l     E      TYP  RCUT    TYP  RCUT                                        
     0   .000     23  1.900                                                     
     0   .000     23  1.900                                                     
     1   .000     23  1.900                                                     
     1  1.000     23  1.900                                                     
     2   .000      7  1.900                                                     
  local pseudopotential read in
  partial core-charges read in
  atomic valenz-charges read in
  non local Contribution for L=           0  read in
    real space projection operators read in
  non local Contribution for L=           0  read in
    real space projection operators read in
  non local Contribution for L=           1  read in
    real space projection operators read in
  non local Contribution for L=           1  read in
    real space projection operators read in
    PAW grid and wavefunctions read in
 
   number of l-projection  operators is LMAX  =           4
   number of lm-projection operators is LMMAX =           8
 

 ----------------------------------------------------------------------------- 
|                                                                             |
|  ADVICE TO THIS USER RUNNING 'VASP/VAMP'   (HEAR YOUR MASTER'S VOICE ...):  |
|                                                                             |
|      You have a (more or less) 'large supercell' and for larger cells       |
|      it might be more efficient to use real space projection operators      |
|      So try LREAL= Auto  in the INCAR   file.                               |
|      Mind: If you want to do a very accurate calculations keep the          |
|      reciprocal projection scheme          (i.e. LREAL=.FALSE.)             |
|                                                                             |
 ----------------------------------------------------------------------------- 

 PAW_PBE Al 04Jan2001                   :
 energy of atom  1       EATOM=  -53.5387
 kinetic energy error for atom=    0.0006 (will be added to EATOM!!)
 
 
 POSCAR: POSCAR_03:FCC Al endpoint 1             
  positions in direct lattice
  No initial velocities read in
 exchange correlation table for  LEXCH =        8
   RHO(1)=    0.500       N(1)  =     2000
   RHO(2)=  100.500       N(2)  =     4000

 VTST: version 2.03d, (02/18/09)

 CHAIN: initializing optimizer
 
 OPT: Using VASP QUASI-newton optimizer
 CHAIN: Read ICHAIN            0
 CHAIN: Running the NEB
 NEB:          SPRING     -5.000000
 NEB:          LCLIMB      T
 NEB:     LTANGENTOLD      F
 NEB:           LDNEB      F
 NEB:        LDNEBORG      F
 NEB:          EFIRST      0.000000
 NEB:           ELAST      0.000000
 
 POSCAR: POSCAR_00:FCC Al endpoint 1             
  positions in direct lattice
  No initial velocities read in
 
 POSCAR: POSCAR_04:FCC Al endpoint 1             
  positions in direct lattice
  No initial velocities read in
 


--------------------------------------------------------------------------------------------------------


 ion  position               nearest neighbor table
   1  0.005  0.005  0.500-  16 2.80  17 2.80  24 2.80  25 2.80  20 2.82  21 2.82  26 2.82  27 2.82
                            15 2.82  13 2.83  11 2.83   9 2.83
   2  0.001  0.511  0.000-  14 2.76  26 2.80  27 2.80  22 2.80  23 2.80  12 2.82  10 2.83  24 2.89
                            25 2.89  18 2.89  19 2.89
   3  0.005  0.507  0.500-  24 2.78  25 2.78  26 2.80  27 2.80  18 2.80  19 2.80  22 2.82  23 2.82
                            15 2.82  13 2.82  11 2.82   9 2.83
   4  0.511  0.001  0.000-  14 2.76  20 2.80  21 2.80  30 2.80  31 2.80  10 2.82  12 2.83  16 2.89
                            17 2.89  28 2.89  29 2.89
   5  0.507  0.005  0.500-  16 2.78  17 2.78  20 2.80  21 2.80  28 2.80  29 2.80  30 2.82  31 2.82
                            15 2.82  11 2.82  13 2.82   9 2.83
   6  0.511  0.511  0.000-  14 2.74  22 2.80  23 2.80  30 2.80  31 2.80  12 2.81  10 2.81  28 2.89
                            29 2.89  18 2.89  19 2.89
   7  0.507  0.507  0.500-  18 2.80  19 2.80  28 2.80  29 2.80  22 2.82  23 2.82  30 2.82  31 2.82
                            15 2.82  13 2.82  11 2.82   9 2.83
   8  0.065  0.065  0.000-  16 2.62  17 2.62  24 2.62  25 2.62  10 2.92  12 2.92  20 3.23  21 3.23
                            26 3.23  27 3.23
   9  0.256  0.256  0.500-  16 2.82  17 2.82  24 2.82  25 2.82  18 2.82  19 2.82  28 2.82  29 2.82
                             7 2.83   5 2.83   3 2.83   1 2.83
  10  0.258  0.754  0.000-   6 2.81  18 2.82  19 2.82  30 2.82  31 2.82   4 2.82   2 2.83  16 2.85
                            17 2.85  26 2.85  27 2.85   8 2.92
  11  0.256  0.756  0.500-  16 2.75  17 2.75  18 2.76  19 2.76  26 2.82  27 2.82  30 2.82  31 2.82
                             7 2.82   5 2.82   3 2.82   1 2.83
  12  0.754  0.258  0.000-   6 2.81  28 2.82  29 2.82  22 2.82  23 2.82   2 2.82   4 2.83  24 2.85
                            25 2.85  20 2.85  21 2.85   8 2.92
  13  0.756  0.256  0.500-  24 2.75  25 2.75  28 2.76  29 2.76  20 2.82  21 2.82  22 2.82  23 2.82
                             7 2.82   3 2.82   5 2.82   1 2.83
  14  0.754  0.754  0.000-   6 2.74   4 2.76   2 2.76  22 2.82  23 2.82  30 2.82  31 2.82  26 2.85
                            27 2.85  20 2.85  21 2.85
  15  0.756  0.756  0.500-  20 2.81  21 2.81  26 2.81  27 2.81  22 2.82  23 2.82  30 2.82  31 2.82
                             7 2.82   5 2.82   3 2.82   1 2.82
  16  0.258  0.001  0.257-   8 2.62  11 2.75   5 2.78  30 2.79   1 2.80   9 2.82  26 2.82  10 2.85
                            28 2.88   4 2.89  24 2.91
  17  0.258  0.001  0.743-   8 2.62  11 2.75   5 2.78  31 2.79   1 2.80   9 2.82  27 2.82  10 2.85
                            29 2.88   4 2.89  25 2.91
  18  0.256  0.511  0.256-  11 2.76  26 2.79  30 2.80   7 2.80   3 2.80  10 2.82   9 2.82  24 2.88
                            28 2.88   6 2.89   2 2.89
  19  0.256  0.511  0.744-  11 2.76  27 2.79  31 2.80   7 2.80   3 2.80  10 2.82   9 2.82  25 2.88
                            29 2.88   6 2.89   2 2.89
  20  0.754  0.005  0.252-  28 2.79   5 2.80   4 2.80  30 2.81  15 2.81  13 2.82   1 2.82  24 2.82
                            26 2.84  14 2.85  12 2.85   8 3.23
  21  0.754  0.005  0.748-  29 2.79   5 2.80   4 2.80  31 2.81  15 2.81  13 2.82   1 2.82  25 2.82
                            27 2.84  14 2.85  12 2.85   8 3.23
  22  0.756  0.507  0.251-  24 2.79  28 2.80   6 2.80   2 2.80  26 2.81  15 2.82   7 2.82  30 2.82
                            14 2.82   3 2.82  13 2.82  12 2.82
  23  0.756  0.507  0.749-  25 2.79  29 2.80   6 2.80   2 2.80  27 2.81  15 2.82   7 2.82  31 2.82
                            14 2.82   3 2.82  13 2.82  12 2.82
  24  0.001  0.258  0.257-   8 2.62  13 2.75   3 2.78  22 2.79   1 2.80   9 2.82  20 2.82  12 2.85
                            18 2.88   2 2.89  16 2.91
  25  0.001  0.258  0.743-   8 2.62  13 2.75   3 2.78  23 2.79   1 2.80   9 2.82  21 2.82  12 2.85
                            19 2.88   2 2.89  17 2.91
  26  0.005  0.754  0.252-  18 2.79   3 2.80   2 2.80  22 2.81  15 2.81  11 2.82   1 2.82  16 2.82
                            20 2.84  14 2.85  10 2.85   8 3.23
  27  0.005  0.754  0.748-  19 2.79   3 2.80   2 2.80  23 2.81  15 2.81  11 2.82   1 2.82  17 2.82
                            21 2.84  14 2.85  10 2.85   8 3.23
  28  0.511  0.256  0.256-  13 2.76  20 2.79  22 2.80   7 2.80   5 2.80  12 2.82   9 2.82  16 2.88
                            18 2.88   6 2.89   4 2.89
  29  0.511  0.256  0.744-  13 2.76  21 2.79  23 2.80   7 2.80   5 2.80  12 2.82   9 2.82  17 2.88
                            19 2.88   6 2.89   4 2.89
  30  0.507  0.756  0.251-  16 2.79  18 2.80   6 2.80   4 2.80  20 2.81  15 2.82   7 2.82  22 2.82
                            14 2.82   5 2.82  11 2.82  10 2.82
  31  0.507  0.756  0.749-  17 2.79  19 2.80   6 2.80   4 2.80  21 2.81  15 2.82   7 2.82  23 2.82
                            14 2.82   5 2.82  11 2.82  10 2.82
 
  LATTYP: Found a simple cubic cell.
 ALAT       =     7.9894616391
  
  Lattice vectors:
  
 A1 = (   7.9894616391,   0.0000000000,   0.0000000000)
 A2 = (   0.0000000000,   7.9894616391,   0.0000000000)
 A3 = (   0.0000000000,   0.0000000000,   7.9894616391)
 Subroutine PRICEL returns:
 Original cell was already a primitive cell.
 

Analysis of symmetry for initial positions (statically):

 Routine SETGRP: Setting up the symmetry group for a 
 simple cubic supercell.


 Subroutine GETGRP returns: Found  4 space group operations
 (whereof  4 operations were pure point group operations)
 out of a pool of 48 trial point group operations.


The static configuration has the point symmetry C_2v.

Analysis of symmetry for dynamics (positions and initial velocities):

 Subroutine DYNSYM returns: Found  4 space group operations
 (whereof  4 operations were pure point group operations)
 out of a pool of  4 trial space group operations
 (whereof  4 operations were pure point group operations)
 and found also     1 'primitive' translations


The dynamic configuration has the point symmetry C_2v.
 
 
 KPOINTS: FCC test                                

Automatic generation of k-mesh.
 
 Subroutine IBZKPT returns following result:
 ===========================================
 
 Found      1 irreducible k-points:
 
 Following reciprocal coordinates:
            Coordinates               Weight
  0.000000  0.000000  0.000000      1.000000
 
 Following cartesian coordinates:
            Coordinates               Weight
  0.000000  0.000000  0.000000      1.000000
 


--------------------------------------------------------------------------------------------------------




 Dimension of arrays:
   k-points           NKPTS =      1   k-points in BZ     NKDIM =      1   number of bands    NBANDS=     62
   number of dos      NEDOS =    301   number of ions     NIONS =     31
   non local maximal  LDIM  =      4   non local SUM 2l+1 LMDIM =      8
   total plane-waves  NPLWV = 125000
   max r-space proj   IRMAX =      1   max aug-charges    IRDMAX=   9738
   dimension x,y,z NGX =    50 NGY =   50 NGZ =   50
   dimension x,y,z NGXF=   100 NGYF=  100 NGZF=  100
   support grid    NGXF=   100 NGYF=  100 NGZF=  100
   ions per type =              31
 NGX,Y,Z   is equivalent  to a cutoff of  10.40, 10.40, 10.40 a.u.
 NGXF,Y,Z  is equivalent  to a cutoff of  20.81, 20.81, 20.81 a.u.


 I would recommend the setting:
   dimension x,y,z NGX =    49 NGY =   49 NGZ =   49
 SYSTEM =  unknown system                          
 POSCAR =  POSCAR_03:FCC Al endpoint 1             

 Startparameter for this run:
   NWRITE =      2    write-flag & timer
   PREC   = accura    medium, high low
   ISTART =      0    job   : 0-new  1-cont  2-samecut
   ICHARG =      2    charge: 1-file 2-atom 10-const
   ISPIN  =      1    spin polarized calculation?
   LNONCOLLINEAR =      F non collinear calculations
   LSORBIT =      F    spin-orbit coupling
   INIWAV =      1    electr: 0-lowe 1-rand  2-diag
   LASPH  =      F    aspherical Exc in radial PAW
   METAGGA=      F    non-selfconsistent MetaGGA calc.

 Electronic Relaxation 1
   ENCUT  =  360.0 eV  26.46 Ry    5.14 a.u.  12.36 12.36 12.36*2*pi/ulx,y,z
   ENINI  =  360.0     initial cutoff
   ENAUG  =  291.1 eV  augmentation charge cutoff
   NELM   =     60;   NELMIN=  2; NELMDL= -5     # of ELM steps 
   EDIFF  = 0.1E-03   stopping-criterion for ELM
   LREAL  =      F    real-space projection
   LCOMPAT=      F    compatible to vasp.4.4
   LREAL_COMPAT= F    compatible to vasp.4.5.1-3
   GGA_COMPAT  = T    GGA compatible to vasp.4.4-vasp.4.6
   LMAXPAW     = -100 max onsite density
   LMAXMIX     =    2 max onsite mixed and CHGCAR
   VOSKOWN=      0    Vosko Wilk Nusair interpolation
   ROPT   =    0.00000
 Ionic relaxation
   EDIFFG = 0.1E-02   stopping-criterion for IOM
   NSW    =    191    number of steps for IOM
   NBLOCK =      1;   KBLOCK =    191    inner block; outer block 
   IBRION =      1    ionic relax: 0-MD 1-quasi-New 2-CG
   NFREE  =      0    steps in history (QN), initial steepest desc. (CG)
   ISIF   =      2    stress and relaxation
   IWAVPR =     11    prediction:  0-non 1-charg 2-wave 3-comb
   ISYM   =      2    0-nonsym 1-usesym 2-fastsym
   LCORR  =      T    Harris-Foulkes like correction to forces

   POTIM  = 0.5000    time-step for ionic-motion
   TEIN   =    0.0    initial temperature
   TEBEG  =    0.0;   TEEND  =   0.0 temperature during run
   SMASS  =  -3.00    Nose mass-parameter (am)
   estimated Nose-frequenzy (Omega)   =  0.10E-29 period in steps =****** mass=  -0.146E-26a.u.
   NPACO  =    256;   APACO  = 16.0  distance and # of slots for P.C.
   PSTRESS=    0.0 pullay stress

  Mass of Ions in am
   POMASS =  26.98
  Ionic Valenz
   ZVAL   =   3.00
  Atomic Wigner-Seitz radii
   RWIGS  =  -1.00
   NELECT =      93.0000    total number of electrons
   NUPDOWN=      -1.0000    fix difference up-down

 DOS related values:
   EMIN   =  10.00;   EMAX   =-10.00  energy-range for DOS
   EFERMI =   0.00
   ISMEAR =     1;   SIGMA  =   0.20  broadening in eV -4-tet -1-fermi 0-gaus

 Electronic relaxation 2 (details)
   IALGO  =     38    algorithm
   LDIAG  =      T    sub-space diagonalisation
   IMIX   =      4    mixing-type and parameters
     AMIX     =   0.40;   BMIX     =  1.00
     AMIX_MAG =   1.60;   BMIX_MAG =  1.00
     AMIN     =   0.10
     WC   =   100.;   INIMIX=   1;  MIXPRE=   1

 Intra band minimization:
   WEIMIN = 0.0010     energy-eigenvalue tresh-hold
   EBREAK =  0.40E-06  absolut break condition
   DEPER  =   0.30     relativ break condition  

   TIME   =   0.40     timestep for ELM

  volume/ion in A,a.u.               =      16.45       111.02
  Fermi-wavevector in a.u.,A,eV,Ry     =   0.928364  1.754354 11.726314  0.861860
  Thomas-Fermi vector in A             =   2.054533
 
 Write flags
   LWAVE  =      F    write WAVECAR
   LCHARG =      F    write CHGCAR
   LVTOT  =      F    write LOCPOT, local potential
   LELF   =      F    write electronic localiz. function (ELF)
   LORBIT =      0    0 simple, 1 ext, 2 COOP (PROOUT)


 Dipole corrections
   LMONO  =      F    monopole corrections only (constant potential shift)
   LDIPOL =      F    correct potential (dipole corrections)
   IDIPOL =      0    1-x, 2-y, 3-z, 4-all directions 
   EPSILON=  1.0000000 bulk dielectric constant

 Exchange correlation treatment:
   GGA     =    --    GGA type
   LEXCH   =     8    internal setting for exchange type
   VOSKOWN=      0    Vosko Wilk Nusair interpolation
   LHFCALC =     F    Hartree Fock is set to
   LHFONE  =     F    Hartree Fock one center treatment
   AEXX    =    0.0000 exact exchange contribution

 Linear response parameters
   LEPSILON=     F    determine dielectric tensor
   LRPA    =     F    only Hartree local field effects (RPA)
   LNABLA  =     F    use nabla operator in PAW spheres
   LVEL    =     F    velocity operator in full k-point grid
   LINTERFAST=   F  fast interpolation
   KINTER  =     0    interpolate to denser k-point grid
   CSHIFT  =0.1000    complex shift for real part using Kramers Kronig
   OMEGAMAX=  -1.0    maximum frequency

 Orbital magnetization related:
   ORBITALMAG=     F  switch on orbital magnetization
   LCHIMAG   =     F  perturbation theory with respect to B field



--------------------------------------------------------------------------------------------------------


 quasi-Newton-method for relaxation of ions
 charge density and potential will be updated during run
 non-spin polarized calculation
 Variant of blocked Davidson
 Davidson routine will perform the subspace rotation
 perform sub-space diagonalisation
    after iterative eigenvector-optimisation
 modified Broyden-mixing scheme, WC =      100.0
 initial mixing is a Kerker type mixing with AMIX =  0.4000 and BMIX =      1.0000
 Hartree-type preconditioning will be used
 using additional bands           15
 reciprocal scheme for non local part
 use partial core corrections
 calculate Harris-corrections to forces 
   (improved forces if not selfconsistent)
 use gradient corrections 
 use of overlap-Matrix (Vanderbilt PP)
 Methfessel and Paxton  Order N= 1 SIGMA  =   0.20


--------------------------------------------------------------------------------------------------------


  energy-cutoff  :      360.00
  volume of cell :      509.98
      direct lattice vectors                 reciprocal lattice vectors
     7.989461639  0.000000000  0.000000000     0.125164879  0.000000000  0.000000000
     0.000000000  7.989461639  0.000000000     0.000000000  0.125164879  0.000000000
     0.000000000  0.000000000  7.989461639     0.000000000  0.000000000  0.125164879

  length of vectors
     7.989461639  7.989461639  7.989461639     0.125164879  0.125164879  0.125164879


 
 k-points in units of 2pi/SCALE and weight: FCC test                                
   0.00000000  0.00000000  0.00000000       1.000
 
 k-points in reciprocal lattice and weights: FCC test                                
   0.00000000  0.00000000  0.00000000       1.000
 
 position of ions in fractional coordinates (direct lattice) 
   0.00541213  0.00541213  0.50000000
   0.00064973  0.51144705  0.00000000
   0.00541213  0.50668464  0.50000000
   0.51144705  0.00064973  0.00000000
   0.50668464  0.00541213  0.50000000
   0.51144705  0.51144705  0.00000000
   0.50668464  0.50668464  0.50000000
   0.06494930  0.06494930  0.00000000
   0.25626051  0.25626051  0.50000000
   0.25784796  0.75424882  0.00000000
   0.25626051  0.75583626  0.50000000
   0.75424882  0.25784796  0.00000000
   0.75583626  0.25626051  0.50000000
   0.75424882  0.75424882  0.00000000
   0.75583626  0.75583626  0.50000000
   0.25784796  0.00064973  0.25719823
   0.25784796  0.00064973  0.74280177
   0.25626051  0.51144705  0.25561079
   0.25626051  0.51144705  0.74438921
   0.75424882  0.00541213  0.25243582
   0.75424882  0.00541213  0.74756418
   0.75583626  0.50668464  0.25084838
   0.75583626  0.50668464  0.74915162
   0.00064973  0.25784796  0.25719823
   0.00064973  0.25784796  0.74280177
   0.00541213  0.75424882  0.25243582
   0.00541213  0.75424882  0.74756418
   0.51144705  0.25626051  0.25561079
   0.51144705  0.25626051  0.74438921
   0.50668464  0.75583626  0.25084838
   0.50668464  0.75583626  0.74915162
 
 position of ions in cartesian coordinates  (Angst):
   0.04324002  0.04324002  3.99473082
   0.00519098  4.08618656  0.00000000
   0.04324002  4.04813751  3.99473082
   4.08618656  0.00519098  0.00000000
   4.04813751  0.04324002  3.99473082
   4.08618656  4.08618656  0.00000000
   4.04813751  4.04813751  3.99473082
   0.51890992  0.51890992  0.00000000
   2.04738355  2.04738355  3.99473082
   2.06006636  6.02604200  0.00000000
   2.04738355  6.03872480  3.99473082
   6.02604200  2.06006636  0.00000000
   6.03872480  2.04738355  3.99473082
   6.02604200  6.02604200  0.00000000
   6.03872480  6.03872480  3.99473082
   2.06006636  0.00519098  2.05487538
   2.06006636  0.00519098  5.93458626
   2.04738355  4.08618656  2.04219257
   2.04738355  4.08618656  5.94726906
   6.02604200  0.04324002  2.01682634
   6.02604200  0.04324002  5.97263530
   6.03872480  4.04813751  2.00414353
   6.03872480  4.04813751  5.98531811
   0.00519098  2.06006636  2.05487538
   0.00519098  2.06006636  5.93458626
   0.04324002  6.02604200  2.01682634
   0.04324002  6.02604200  5.97263530
   4.08618656  2.04738355  2.04219257
   4.08618656  2.04738355  5.94726906
   4.04813751  6.03872480  2.00414353
   4.04813751  6.03872480  5.98531811
 


--------------------------------------------------------------------------------------------------------


 k-point  1 :  0.00000.00000.0000  plane waves:    7881

 maximum and minimum number of plane-waves per node :    3953   3928

 maximum number of plane-waves:    7881
 maximal index in each direction: 
   IXMAX= 12   IYMAX= 12   IZMAX= 12
   IXMIN=-12   IYMIN=-12   IZMIN=-12

 NGX is ok and might be reduce to  50
 NGY is ok and might be reduce to  50
 NGZ is ok and might be reduce to  50

 parallel 3D FFT for wavefunctions:
    minimum data exchange during FFTs selected (reduces bandwidth)
 parallel 3D FFT for charge:
    minimum data exchange during FFTs selected (reduces bandwidth)


 total amount of memory used by VASP on root node  90106. kBytes
========================================================================

   base      :    30000. kBytes
   nonl-proj :     2213. kBytes
   fftplans  :    18956. kBytes
   grid      :    34840. kBytes
   one-center:       49. kBytes
   wavefun   :     4048. kBytes
 
 Broyden mixing: mesh for mixing (old mesh)
   NGX = 25   NGY = 25   NGZ = 25
  (NGX  =100   NGY  =100   NGZ  =100)
  gives a total of  15625 points

 initial charge density was supplied:
 charge density of overlapping atoms calculated
 number of electron   93.0000000 magnetization 
 keeping initial charge density in first step


--------------------------------------------------------------------------------------------------------


 Maximum index for augmentation-charges         4653 (set IRDMAX)


--------------------------------------------------------------------------------------------------------


 First call to EWALD:  gamma=   0.222
 Maximum number of real-space cells 3x 3x 3
 Maximum number of reciprocal cells 3x 3x 3

    FEWALD:  cpu time    0.01: real time    0.02
   RESPFUN:  cpu time    0.00: real time    0.00


----------------------------------------- Iteration    1(   1)  ---------------------------------------


    POTLOK:  cpu time    1.05: real time    1.06
    SETDIJ:  cpu time    0.07: real time    0.07
     EDDAV:  cpu time    3.40: real time    3.40
       DOS:  cpu time    0.00: real time    0.00
    --------------------------------------------
      LOOP:  cpu time    4.52: real time    4.53

 eigenvalue-minimisations  :   124
 total energy-change (2. order) : 0.1054889E+03  (-0.2614107E+04)
 number of electron   93.0000000 magnetization 
 augmentation part    93.0000000 magnetization 

 Free energy of the ion-electron system (eV)
  ---------------------------------------------------
  alpha Z        PSCENC =        -6.32931246
  Ewald energy   TEWEN  =     -2249.28328269
  -1/2 Hartree   DENC   =       -22.94370977
  -exchange  EXHF       =         0.00000000
  -V(xc)+E(xc)   XCENC  =      -812.69967577
  PAW double counting   =      1102.18190231     -111.56847430
  entropy T*S    EENTRO =        -0.03826606
  eigenvalues    EBANDS =       546.48846425
  atomic energy  EATOM  =      1659.68123870
  ---------------------------------------------------
  free energy    TOTEN  =       105.48888421 eV

  energy without entropy =      105.52715027  energy(sigma->0) =      105.50163956


--------------------------------------------------------------------------------------------------------




----------------------------------------- Iteration    1(   2)  ---------------------------------------


     EDDAV:  cpu time    3.78: real time    3.78
       DOS:  cpu time    0.00: real time    0.00
    --------------------------------------------
      LOOP:  cpu time    3.78: real time    3.79

 eigenvalue-minimisations  :   144
 total energy-change (2. order) :-0.1913870E+03  (-0.1773838E+03)
 number of electron   93.0000000 magnetization 
 augmentation part    93.0000000 magnetization 

 Free energy of the ion-electron system (eV)
  ---------------------------------------------------
  alpha Z        PSCENC =        -6.32931246
  Ewald energy   TEWEN  =     -2249.28328269
  -1/2 Hartree   DENC   =       -22.94370977
  -exchange  EXHF       =         0.00000000
  -V(xc)+E(xc)   XCENC  =      -812.69967577
  PAW double counting   =      1102.18190231     -111.56847430
  entropy T*S    EENTRO =        -0.02118416
  eigenvalues    EBANDS =       355.08442671
  atomic energy  EATOM  =      1659.68123870
  ---------------------------------------------------
  free energy    TOTEN  =       -85.89807142 eV

  energy without entropy =      -85.87688727  energy(sigma->0) =      -85.89101004


--------------------------------------------------------------------------------------------------------




----------------------------------------- Iteration    1(   3)  ---------------------------------------


     EDDAV:  cpu time    4.25: real time    4.25
       DOS:  cpu time    0.00: real time    0.00
    --------------------------------------------
      LOOP:  cpu time    4.25: real time    4.25

 eigenvalue-minimisations  :   168
 total energy-change (2. order) :-0.1502675E+02  (-0.1441932E+02)
 number of electron   93.0000000 magnetization 
 augmentation part    93.0000000 magnetization 

 Free energy of the ion-electron system (eV)
  ---------------------------------------------------
  alpha Z        PSCENC =        -6.32931246
  Ewald energy   TEWEN  =     -2249.28328269
  -1/2 Hartree   DENC   =       -22.94370977
  -exchange  EXHF       =         0.00000000
  -V(xc)+E(xc)   XCENC  =      -812.69967577
  PAW double counting   =      1102.18190231     -111.56847430
  entropy T*S    EENTRO =        -0.03915369
  eigenvalues    EBANDS =       340.07565023
  atomic energy  EATOM  =      1659.68123870
  ---------------------------------------------------
  free energy    TOTEN  =      -100.92481743 eV

  energy without entropy =     -100.88566374  energy(sigma->0) =     -100.91176620


--------------------------------------------------------------------------------------------------------




----------------------------------------- Iteration    1(   4)  ---------------------------------------


     EDDAV:  cpu time    4.25: real time    4.25
       DOS:  cpu time    0.00: real time    0.00
    --------------------------------------------
      LOOP:  cpu time    4.25: real time    4.25

 eigenvalue-minimisations  :   168
 total energy-change (2. order) :-0.4167112E+00  (-0.4126051E+00)
 number of electron   93.0000000 magnetization 
 augmentation part    93.0000000 magnetization 

 Free energy of the ion-electron system (eV)
  ---------------------------------------------------
  alpha Z        PSCENC =        -6.32931246
  Ewald energy   TEWEN  =     -2249.28328269
  -1/2 Hartree   DENC   =       -22.94370977
  -exchange  EXHF       =         0.00000000
  -V(xc)+E(xc)   XCENC  =      -812.69967577
  PAW double counting   =      1102.18190231     -111.56847430
  entropy T*S    EENTRO =        -0.03642483
  eigenvalues    EBANDS =       339.65621022
  atomic energy  EATOM  =      1659.68123870
  ---------------------------------------------------
  free energy    TOTEN  =      -101.34152859 eV

  energy without entropy =     -101.30510376  energy(sigma->0) =     -101.32938698


--------------------------------------------------------------------------------------------------------




----------------------------------------- Iteration    1(   5)  ---------------------------------------


     EDDAV:  cpu time    4.09: real time    4.09
       DOS:  cpu time    0.00: real time    0.00
    CHARGE:  cpu time    0.41: real time    0.41
    MIXING:  cpu time    0.03: real time    0.03
    --------------------------------------------
      LOOP:  cpu time    4.54: real time    4.54

 eigenvalue-minimisations  :   160
 total energy-change (2. order) :-0.6385297E-02  (-0.6363960E-02)
 number of electron   93.0000000 magnetization 
 augmentation part    -0.9499581 magnetization 

 Broyden mixing:
  rms(total) = 0.68565E+00    rms(broyden)= 0.68564E+00
  rms(prec ) = 0.13800E+01
  weight for this iteration     100.00

 Free energy of the ion-electron system (eV)
  ---------------------------------------------------
  alpha Z        PSCENC =        -6.32931246
  Ewald energy   TEWEN  =     -2249.28328269
  -1/2 Hartree   DENC   =       -22.94370977
  -exchange  EXHF       =         0.00000000
  -V(xc)+E(xc)   XCENC  =      -812.69967577
  PAW double counting   =      1102.18190231     -111.56847430
  entropy T*S    EENTRO =        -0.03617629
  eigenvalues    EBANDS =       339.64957637
  atomic energy  EATOM  =      1659.68123870
  ---------------------------------------------------
  free energy    TOTEN  =      -101.34791389 eV

  energy without entropy =     -101.31173760  energy(sigma->0) =     -101.33585512


--------------------------------------------------------------------------------------------------------




----------------------------------------- Iteration    1(   6)  ---------------------------------------


    POTLOK:  cpu time    1.05: real time    1.05
    SETDIJ:  cpu time    0.07: real time    0.07
     EDDAV:  cpu time    3.92: real time    3.93
       DOS:  cpu time    0.00: real time    0.00
    CHARGE:  cpu time    0.41: real time    0.41
    MIXING:  cpu time    0.03: real time    0.03
    --------------------------------------------
      LOOP:  cpu time    5.48: real time    5.49

 eigenvalue-minimisations  :   152
 total energy-change (2. order) : 0.1499570E+01  (-0.7051758E+00)
 number of electron   93.0000000 magnetization 
 augmentation part    -0.9622900 magnetization 

 Broyden mixing:
  rms(total) = 0.40813E+00    rms(broyden)= 0.40813E+00
  rms(prec ) = 0.69906E+00
  weight for this iteration     100.00

 eigenvalues of (default mixing * dielectric matrix)
  average eigenvalue GAMMA=   1.7156
  1.7156

 Free energy of the ion-electron system (eV)
  ---------------------------------------------------
  alpha Z        PSCENC =        -6.32931246
  Ewald energy   TEWEN  =     -2249.28328269
  -1/2 Hartree   DENC   =       -26.60448072
  -exchange  EXHF       =         0.00000000
  -V(xc)+E(xc)   XCENC  =      -811.33126232
  PAW double counting   =      1102.79647213     -112.29364736
  entropy T*S    EENTRO =        -0.04928038
  eigenvalues    EBANDS =       343.56521159
  atomic energy  EATOM  =      1659.68123870
  ---------------------------------------------------
  free energy    TOTEN  =       -99.84834350 eV

  energy without entropy =      -99.79906313  energy(sigma->0) =      -99.83191671


--------------------------------------------------------------------------------------------------------




----------------------------------------- Iteration    1(   7)  ---------------------------------------


    POTLOK:  cpu time    1.05: real time    1.05
    SETDIJ:  cpu time    0.07: real time    0.07
     EDDAV:  cpu time    4.08: real time    4.08
       DOS:  cpu time    0.00: real time    0.00
    CHARGE:  cpu time    0.41: real time    0.41
    MIXING:  cpu time    0.03: real time    0.03
    --------------------------------------------
      LOOP:  cpu time    5.64: real time    5.64

 eigenvalue-minimisations  :   160
 total energy-change (2. order) : 0.2937126E+00  (-0.1109859E+00)
 number of electron   93.0000000 magnetization 
 augmentation part    -0.9711507 magnetization 

 Broyden mixing:
  rms(total) = 0.26429E+00    rms(broyden)= 0.26429E+00
  rms(prec ) = 0.40227E+00
  weight for this iteration     100.00

 eigenvalues of (default mixing * dielectric matrix)
  average eigenvalue GAMMA=   1.5844
  2.4480  0.7208

 Free energy of the ion-electron system (eV)
  ---------------------------------------------------
  alpha Z        PSCENC =        -6.32931246
  Ewald energy   TEWEN  =     -2249.28328269
  -1/2 Hartree   DENC   =       -26.73614902
  -exchange  EXHF       =         0.00000000
  -V(xc)+E(xc)   XCENC  =      -810.48945963
  PAW double counting   =      1102.92277899     -112.48726876
  entropy T*S    EENTRO =        -0.07942224
  eigenvalues    EBANDS =       343.24624622
  atomic energy  EATOM  =      1659.68123870
  ---------------------------------------------------
  free energy    TOTEN  =       -99.55463088 eV

  energy without entropy =      -99.47520864  energy(sigma->0) =      -99.52815680


--------------------------------------------------------------------------------------------------------




----------------------------------------- Iteration    1(   8)  ---------------------------------------


    POTLOK:  cpu time    1.05: real time    1.05
    SETDIJ:  cpu time    0.07: real time    0.07
     EDDAV:  cpu time    4.24: real time    4.24
       DOS:  cpu time    0.00: real time    0.00
    CHARGE:  cpu time    0.41: real time    0.41
    MIXING:  cpu time    0.03: real time    0.03
    --------------------------------------------
      LOOP:  cpu time    5.80: real time    5.80

 eigenvalue-minimisations  :   168
 total energy-change (2. order) : 0.1603371E+00  (-0.2868904E-01)
 number of electron   93.0000000 magnetization 
 augmentation part    -0.9862572 magnetization 

 Broyden mixing:
  rms(total) = 0.75130E-01    rms(broyden)= 0.75130E-01
  rms(prec ) = 0.11789E+00
  weight for this iteration     100.00

 eigenvalues of (default mixing * dielectric matrix)
  average eigenvalue GAMMA=   1.4158
  2.5564  0.9894  0.7014

 Free energy of the ion-electron system (eV)
  ---------------------------------------------------
  alpha Z        PSCENC =        -6.32931246
  Ewald energy   TEWEN  =     -2249.28328269
  -1/2 Hartree   DENC   =       -28.42261176
  -exchange  EXHF       =         0.00000000
  -V(xc)+E(xc)   XCENC  =      -809.12175178
  PAW double counting   =      1103.18264508     -112.86739387
  entropy T*S    EENTRO =        -0.07855301
  eigenvalues    EBANDS =       343.84472802
  atomic energy  EATOM  =      1659.68123870
  ---------------------------------------------------
  free energy    TOTEN  =       -99.39429377 eV

  energy without entropy =      -99.31574076  energy(sigma->0) =      -99.36810943


--------------------------------------------------------------------------------------------------------




----------------------------------------- Iteration    1(   9)  ---------------------------------------


    POTLOK:  cpu time    1.05: real time    1.05
    SETDIJ:  cpu time    0.07: real time    0.07
     EDDAV:  cpu time    4.24: real time    4.24
       DOS:  cpu time    0.00: real time    0.00
    CHARGE:  cpu time    0.41: real time    0.41
    MIXING:  cpu time    0.03: real time    0.03
    --------------------------------------------
      LOOP:  cpu time    5.80: real time    5.80

 eigenvalue-minimisations  :   168
 total energy-change (2. order) : 0.1420631E-01  (-0.3247491E-02)
 number of electron   93.0000000 magnetization 
 augmentation part    -0.9920027 magnetization 

 Broyden mixing:
  rms(total) = 0.19308E-01    rms(broyden)= 0.19308E-01
  rms(prec ) = 0.37867E-01
  weight for this iteration     100.00

 eigenvalues of (default mixing * dielectric matrix)
  average eigenvalue GAMMA=   1.4005
  2.5875  1.4369  0.7045  0.8733

 Free energy of the ion-electron system (eV)
  ---------------------------------------------------
  alpha Z        PSCENC =        -6.32931246
  Ewald energy   TEWEN  =     -2249.28328269
  -1/2 Hartree   DENC   =       -28.93683867
  -exchange  EXHF       =         0.00000000
  -V(xc)+E(xc)   XCENC  =      -808.62982909
  PAW double counting   =      1103.44641453     -113.18817419
  entropy T*S    EENTRO =        -0.07735341
  eigenvalues    EBANDS =       343.93704982
  atomic energy  EATOM  =      1659.68123870
  ---------------------------------------------------
  free energy    TOTEN  =       -99.38008746 eV

  energy without entropy =      -99.30273405  energy(sigma->0) =      -99.35430299


--------------------------------------------------------------------------------------------------------




----------------------------------------- Iteration    1(  10)  ---------------------------------------


    POTLOK:  cpu time    1.05: real time    1.05
    SETDIJ:  cpu time    0.07: real time    0.07
     EDDAV:  cpu time    4.08: real time    4.08
       DOS:  cpu time    0.00: real time    0.00
    CHARGE:  cpu time    0.41: real time    0.41
    MIXING:  cpu time    0.03: real time    0.03
    --------------------------------------------
      LOOP:  cpu time    5.65: real time    5.65

 eigenvalue-minimisations  :   160
 total energy-change (2. order) : 0.1410643E-02  (-0.4611894E-03)
 number of electron   93.0000000 magnetization 
 augmentation part    -0.9936410 magnetization 

 Broyden mixing:
  rms(total) = 0.84921E-02    rms(broyden)= 0.84921E-02
  rms(prec ) = 0.15756E-01
  weight for this iteration     100.00

 eigenvalues of (default mixing * dielectric matrix)
  average eigenvalue GAMMA=   1.3676
  2.6121  1.8133  0.9491  0.6897  0.7739

 Free energy of the ion-electron system (eV)
  ---------------------------------------------------
  alpha Z        PSCENC =        -6.32931246
  Ewald energy   TEWEN  =     -2249.28328269
  -1/2 Hartree   DENC   =       -28.96313327
  -exchange  EXHF       =         0.00000000
  -V(xc)+E(xc)   XCENC  =      -808.53863501
  PAW double counting   =      1103.63965876     -113.40220612
  entropy T*S    EENTRO =        -0.07670102
  eigenvalues    EBANDS =       343.89369629
  atomic energy  EATOM  =      1659.68123870
  ---------------------------------------------------
  free energy    TOTEN  =       -99.37867682 eV

  energy without entropy =      -99.30197580  energy(sigma->0) =      -99.35310981


--------------------------------------------------------------------------------------------------------




----------------------------------------- Iteration    1(  11)  ---------------------------------------


    POTLOK:  cpu time    1.05: real time    1.05
    SETDIJ:  cpu time    0.07: real time    0.07
     EDDAV:  cpu time    4.09: real time    4.09
       DOS:  cpu time    0.00: real time    0.00
    CHARGE:  cpu time    0.41: real time    0.41
    MIXING:  cpu time    0.03: real time    0.03
    --------------------------------------------
      LOOP:  cpu time    5.65: real time    5.65

 eigenvalue-minimisations  :   160
 total energy-change (2. order) : 0.2055616E-03  (-0.1230595E-03)
 number of electron   93.0000000 magnetization 
 augmentation part    -0.9945347 magnetization 

 Broyden mixing:
  rms(total) = 0.31496E-02    rms(broyden)= 0.31496E-02
  rms(prec ) = 0.49845E-02
  weight for this iteration     100.00

 eigenvalues of (default mixing * dielectric matrix)
  average eigenvalue GAMMA=   1.3480
  2.6249  1.9871  1.1572  0.9097  0.7507  0.6581

 Free energy of the ion-electron system (eV)
  ---------------------------------------------------
  alpha Z        PSCENC =        -6.32931246
  Ewald energy   TEWEN  =     -2249.28328269
  -1/2 Hartree   DENC   =       -28.95773777
  -exchange  EXHF       =         0.00000000
  -V(xc)+E(xc)   XCENC  =      -808.50119166
  PAW double counting   =      1103.79377632     -113.57075763
  entropy T*S    EENTRO =        -0.07633886
  eigenvalues    EBANDS =       343.86513479
  atomic energy  EATOM  =      1659.68123870
  ---------------------------------------------------
  free energy    TOTEN  =       -99.37847125 eV

  energy without entropy =      -99.30213240  energy(sigma->0) =      -99.35302497


--------------------------------------------------------------------------------------------------------




----------------------------------------- Iteration    1(  12)  ---------------------------------------


    POTLOK:  cpu time    1.05: real time    1.05
    SETDIJ:  cpu time    0.07: real time    0.07
     EDDAV:  cpu time    3.00: real time    3.00
       DOS:  cpu time    0.00: real time    0.00
    --------------------------------------------
      LOOP:  cpu time    4.12: real time    4.12

 eigenvalue-minimisations  :   104
 total energy-change (2. order) :-0.1104721E-04  (-0.1052036E-04)
 number of electron   93.0000000 magnetization 
 augmentation part    -0.9945347 magnetization 

 Free energy of the ion-electron system (eV)
  ---------------------------------------------------
  alpha Z        PSCENC =        -6.32931246
  Ewald energy   TEWEN  =     -2249.28328269
  -1/2 Hartree   DENC   =       -28.96894008
  -exchange  EXHF       =         0.00000000
  -V(xc)+E(xc)   XCENC  =      -808.48981295
  PAW double counting   =      1103.85689400     -113.64006009
  entropy T*S    EENTRO =        -0.07660722
  eigenvalues    EBANDS =       343.87140049
  atomic energy  EATOM  =      1659.68123870
  ---------------------------------------------------
  free energy    TOTEN  =       -99.37848230 eV

  energy without entropy =      -99.30187509  energy(sigma->0) =      -99.35294656


--------------------------------------------------------------------------------------------------------




 average (electrostatic) potential at core
  the test charge radii are     1.0406
  (the norm of the test charge is              1.0000)
       1 -72.6232       2 -72.8124       3 -72.5298       4 -72.8124       5 -72.5298
       6 -72.5801       7 -72.6084       8 -72.8862       9 -72.7040      10 -72.8229
      11 -72.2449      12 -72.8229      13 -72.2449      14 -72.2845      15 -72.5917
      16 -72.6823      17 -72.6823      18 -72.7682      19 -72.7682      20 -72.7208
      21 -72.7208      22 -72.6394      23 -72.6394      24 -72.6823      25 -72.6823
      26 -72.7208      27 -72.7208      28 -72.7682      29 -72.7682      30 -72.6394
      31 -72.6394
 
 
 
 E-fermi :   8.2015     XC(G=0): -10.1711     alpha+bet :-14.9207
   add alpha+bet to get absolut eigen values

 k-point   1 :       0.0000    0.0000    0.0000
  band No.  band energies     occupation 
      1      -3.2416      2.00000
      2      -1.0812      2.00000
      3      -1.0706      2.00000
      4      -1.0187      2.00000
      5      -0.9954      2.00000
      6      -0.8665      2.00000
      7      -0.5949      2.00000
      8       1.1443      2.00000
      9       1.1480      2.00000
     10       1.1491      2.00000
     11       1.1936      2.00000
     12       1.2054      2.00000
     13       1.2250      2.00000
     14       1.2491      2.00000
     15       1.3854      2.00000
     16       1.4778      2.00000
     17       1.4952      2.00000
     18       1.5203      2.00000
     19       2.2691      2.00000
     20       3.2622      2.00000
     21       3.4065      2.00000
     22       3.4981      2.00000
     23       3.5208      2.00000
     24       3.6495      2.00000
     25       3.6554      2.00000
     26       3.8333      2.00000
     27       4.3991      2.00000
     28       5.1783      2.00000
     29       5.1833      2.00000
     30       5.2283      2.00000
     31       6.4650      2.00000
     32       6.5446      2.00000
     33       6.7613      2.00000
     34       7.0379      2.00000
     35       7.0566      2.00000
     36       7.1021      2.00000
     37       7.1039      2.00000
     38       7.1710      2.00000
     39       7.1712      2.00000
     40       7.2111      2.00000
     41       7.3376      2.00000
     42       7.4353      2.00000
     43       7.6286      2.00039
     44       7.6385      2.00051
     45       7.6428      2.00057
     46       8.0700      1.88852
     47       8.2689      0.46425
     48       8.2861      0.35066
     49       8.3155      0.18807
     50       8.3190      0.17127
     51       8.4796     -0.06422
     52       9.1317      0.00000
     53       9.1327      0.00000
     54       9.1955      0.00000
     55       9.2582      0.00000
     56       9.2722      0.00000
     57       9.3416      0.00000
     58       9.3591      0.00000
     59       9.3679      0.00000
     60       9.4062      0.00000
     61       9.4369      0.00000
     62       9.4793      0.00000


--------------------------------------------------------------------------------------------------------


 soft charge-density along one line, spin component           1
         0         1         2         3         4         5         6         7         8         9
 total charge-density along one line
 
 pseudopotential strength for first ion, spin component:           1
  8.445  -0.006   0.000   0.000   0.000   0.000   0.000   0.000
 -0.006   0.000   0.000   0.000   0.000   0.000   0.000   0.000
  0.000   0.000   1.988   0.000   0.000  -0.027   0.000   0.000
  0.000   0.000   0.000   1.988   0.000   0.000  -0.027   0.000
  0.000   0.000   0.000   0.000   1.988   0.000   0.000  -0.027
  0.000   0.000  -0.027   0.000   0.000  -0.012   0.000   0.000
  0.000   0.000   0.000  -0.027   0.000   0.000  -0.012   0.000
  0.000   0.000   0.000   0.000  -0.027   0.000   0.000  -0.012
 total augmentation occupancy for first ion, spin component:           1
  1.141  -0.583  -0.008   0.000  -0.008   0.002   0.000   0.002
 -0.583   0.512  -0.004   0.000  -0.004   0.000   0.000   0.000
 -0.008  -0.004   0.859   0.000  -0.017  -0.168   0.000   0.002
  0.000   0.000   0.000   0.805   0.000   0.000  -0.162   0.000
 -0.008  -0.004  -0.017   0.000   0.859   0.002   0.000  -0.168
  0.002   0.000  -0.168   0.000   0.002   0.041   0.000   0.000
  0.000   0.000   0.000  -0.162   0.000   0.000   0.040   0.000
  0.002   0.000   0.002   0.000  -0.168   0.000   0.000   0.041


------------------------ aborting loop because EDIFF is reached ----------------------------------------




--------------------------------------------------------------------------------------------------------



  FREE ENERGIE OF THE ION-ELECTRON SYSTEM (eV)
  ---------------------------------------------------
  free  energy   TOTEN  =       -99.378482 eV

  energy  without entropy=      -99.301875  energy(sigma->0) =      -99.352947
 
    CHARGE:  cpu time    0.41: real time    0.41
    FORLOC:  cpu time    0.27: real time    0.27
    FORNL :  cpu time    1.62: real time    1.62
    STRESS:  cpu time    2.04: real time    2.04
    FORCOR:  cpu time    1.27: real time    1.27
    FORHAR:  cpu time    0.51: real time    0.51
    MIXING:  cpu time    0.03: real time    0.03

  FORCE on cell =-STRESS in cart. coord.  units (eV):
  Direction    XX          YY          ZZ          XY          YZ          ZX
  --------------------------------------------------------------------------------------
  Alpha Z    -6.32931    -6.32931    -6.32931
  Ewald    -751.66702  -751.66702  -745.95839    -8.51965     0.00000     0.00000
  Hartree    11.17563    11.17563     6.64039    -1.11488     0.00000     0.00000
  E(xc)    -266.41745  -266.41745  -266.60431     0.07936     0.00000     0.00000
  Local      -6.36867    -6.36867    -6.03455     9.84563     0.00000     0.00000
  n-local   562.55548   562.55546   564.36515    -1.11834    -0.00002    -0.00003
  augment   -26.57238   -26.57238   -26.48077     0.05269     0.00001     0.00001
  Kinetic   486.87230   486.87233   485.84732     0.50968     0.00003    -0.00006
  Fock        0.00000     0.00000     0.00000     0.00000     0.00000     0.00000
  -------------------------------------------------------------------------------------
  Total       3.24857     3.24857     5.44553    -0.26550     0.00000     0.00000
  in kB      10.20588    10.20588    17.10797    -0.83412     0.00000     0.00000
  external pressure =       12.51 kB  Pullay stress =        0.00 kB


 VOLUME and BASIS-vectors are now :
 -----------------------------------------------------------------------------
  energy-cutoff  :      360.00
  volume of cell :      509.98
      direct lattice vectors                 reciprocal lattice vectors
     7.989461639  0.000000000  0.000000000     0.125164879  0.000000000  0.000000000
     0.000000000  7.989461639  0.000000000     0.000000000  0.125164879  0.000000000
     0.000000000  0.000000000  7.989461639     0.000000000  0.000000000  0.125164879

  length of vectors
     7.989461639  7.989461639  7.989461639     0.125164879  0.125164879  0.125164879


 FORCES acting on ions
    electron-ion (+dipol)            ewald-force                    non-local-force                 convergence-correction
 -----------------------------------------------------------------------------------------------
   -.168E+01 -.168E+01 0.136E-06   0.149E+01 0.149E+01 0.150E-14   0.202E+00 0.202E+00 0.000E+00   0.218E-02 0.218E-02 -.381E-13
   -.120E+02 0.881E+01 -.443E-07   0.111E+02 -.801E+01 -.416E-14   0.912E+00 -.100E+01 0.000E+00   0.238E-02 -.160E-03 0.461E-13
   -.222E+01 0.181E+01 0.109E-06   0.227E+01 -.174E+01 -.189E-14   -.318E+00 -.110E+00 0.000E+00   0.135E-02 -.262E-02 -.467E-13
   0.881E+01 -.120E+02 -.443E-07   -.801E+01 0.111E+02 -.244E-14   -.100E+01 0.912E+00 0.000E+00   -.160E-03 0.238E-02 0.534E-13
   0.181E+01 -.222E+01 0.109E-06   -.174E+01 0.227E+01 0.144E-14   -.110E+00 -.318E+00 0.000E+00   -.262E-02 0.135E-02 -.529E-13
   0.120E+02 0.120E+02 -.870E-09   -.115E+02 -.115E+02 -.194E-14   -.610E+00 -.610E+00 0.000E+00   -.225E-02 -.225E-02 0.712E-13
   0.255E+01 0.255E+01 0.861E-07   -.230E+01 -.230E+01 -.278E-14   -.103E+00 -.103E+00 0.000E+00   -.130E-02 -.130E-02 -.707E-13
   -.208E+01 -.208E+01 -.890E-07   0.423E+01 0.423E+01 -.250E-14   -.269E+01 -.269E+01 0.000E+00   0.157E-02 0.157E-02 0.418E-13
   -.634E-01 -.634E-01 0.118E-06   0.715E-01 0.715E-01 0.444E-14   -.499E-01 -.499E-01 0.000E+00   -.237E-03 -.237E-03 -.589E-13
   0.448E+01 -.184E+00 0.656E-08   -.381E+01 0.121E+00 0.150E-14   -.525E+00 0.370E+00 0.000E+00   -.620E-03 -.159E-02 0.626E-13
   0.613E+00 0.205E+00 0.126E-06   -.621E+00 0.808E-01 -.278E-15   0.266E+00 -.150E+00 0.000E+00   0.698E-03 0.421E-03 -.612E-13
   -.184E+00 0.448E+01 0.655E-08   0.121E+00 -.381E+01 0.328E-14   0.370E+00 -.525E+00 0.000E+00   -.159E-02 -.620E-03 0.391E-13
   0.205E+00 0.613E+00 0.126E-06   0.808E-01 -.621E+00 0.216E-14   -.150E+00 0.266E+00 0.000E+00   0.421E-03 0.698E-03 -.397E-13
   -.601E+01 -.601E+01 0.105E-06   0.580E+01 0.580E+01 -.416E-14   0.403E+00 0.403E+00 0.000E+00   0.622E-03 0.622E-03 0.464E-13
   -.951E+00 -.951E+00 0.134E-06   0.703E+00 0.703E+00 0.255E-14   0.109E+00 0.109E+00 0.000E+00   -.772E-03 -.772E-03 -.466E-13
   0.165E+00 -.979E+01 0.100E+02   -.251E+00 0.895E+01 -.976E+01   0.420E+00 0.576E+00 0.158E-01   0.912E-03 0.180E-02 -.107E-02
   0.165E+00 -.979E+01 -.100E+02   -.251E+00 0.895E+01 0.976E+01   0.420E+00 0.576E+00 -.158E-01   0.912E-03 0.180E-02 0.107E-02
   0.224E+00 0.116E+02 0.130E+02   -.127E+00 -.108E+02 -.123E+02   -.715E-02 -.828E+00 -.781E+00   0.870E-04 -.221E-02 -.298E-02
   0.224E+00 0.116E+02 -.130E+02   -.127E+00 -.108E+02 0.123E+02   -.715E-02 -.828E+00 0.781E+00   0.870E-04 -.221E-02 0.298E-02
   -.410E+01 -.130E+01 0.811E+01   0.365E+01 0.101E+01 -.756E+01   0.576E+00 0.244E+00 -.631E+00   -.379E-03 0.124E-02 -.328E-02
   -.410E+01 -.130E+01 -.811E+01   0.365E+01 0.101E+01 0.756E+01   0.576E+00 0.244E+00 0.631E+00   -.379E-03 0.124E-02 0.328E-02
   -.152E+00 0.132E+01 0.345E+01   0.270E+00 -.160E+01 -.331E+01   0.332E-01 0.581E-01 0.215E-01   -.106E-03 -.146E-02 -.193E-02
   -.152E+00 0.132E+01 -.345E+01   0.270E+00 -.160E+01 0.331E+01   0.332E-01 0.581E-01 -.215E-01   -.106E-03 -.146E-02 0.193E-02
   -.979E+01 0.165E+00 0.100E+02   0.895E+01 -.251E+00 -.976E+01   0.576E+00 0.420E+00 0.158E-01   0.180E-02 0.912E-03 -.107E-02
   -.979E+01 0.165E+00 -.100E+02   0.895E+01 -.251E+00 0.976E+01   0.576E+00 0.420E+00 -.158E-01   0.180E-02 0.912E-03 0.107E-02
   -.130E+01 -.410E+01 0.811E+01   0.101E+01 0.365E+01 -.756E+01   0.244E+00 0.576E+00 -.631E+00   0.124E-02 -.379E-03 -.328E-02
   -.130E+01 -.410E+01 -.811E+01   0.101E+01 0.365E+01 0.756E+01   0.244E+00 0.576E+00 0.631E+00   0.124E-02 -.379E-03 0.328E-02
   0.116E+02 0.224E+00 0.130E+02   -.108E+02 -.127E+00 -.123E+02   -.828E+00 -.715E-02 -.781E+00   -.221E-02 0.870E-04 -.298E-02
   0.116E+02 0.224E+00 -.130E+02   -.108E+02 -.127E+00 0.123E+02   -.828E+00 -.715E-02 0.781E+00   -.221E-02 0.870E-04 0.298E-02
   0.132E+01 -.152E+00 0.345E+01   -.160E+01 0.270E+00 -.331E+01   0.581E-01 0.332E-01 0.215E-01   -.146E-02 -.106E-03 -.193E-02
   0.132E+01 -.152E+00 -.345E+01   -.160E+01 0.270E+00 0.331E+01   0.581E-01 0.332E-01 -.215E-01   -.146E-02 -.106E-03 0.193E-02
 -----------------------------------------------------------------------------------------------
   0.116E+01 0.116E+01 0.210E-05   -.666E-14 0.405E-14 0.933E-14   -.115E+01 -.115E+01 0.111E-15   -.563E-03 -.563E-03 -.756E-13
 
 
 POSITION                                       TOTAL-FORCE (eV/Angst)
 -----------------------------------------------------------------------------------
      0.04324      0.04324      3.99473         0.011945      0.011945      0.000000
      0.00519      4.08619      0.00000        -0.057949     -0.196681      0.000000
      0.04324      4.04814      3.99473        -0.263276     -0.042294      0.000000
      4.08619      0.00519      0.00000        -0.196681     -0.057949      0.000000
      4.04814      0.04324      3.99473        -0.042294     -0.263276      0.000000
      4.08619      4.08619      0.00000        -0.141085     -0.141085      0.000000
      4.04814      4.04814      3.99473         0.142758      0.142758      0.000000
      0.51891      0.51891      0.00000        -0.542226     -0.542226      0.000000
      2.04738      2.04738      3.99473        -0.042136     -0.042136      0.000000
      2.06007      6.02604      0.00000         0.145677      0.304929      0.000000
      2.04738      6.03872      3.99473         0.258008      0.136284      0.000000
      6.02604      2.06007      0.00000         0.304929      0.145677      0.000000
      6.03872      2.04738      3.99473         0.136284      0.258008      0.000000
      6.02604      6.02604      0.00000         0.191878      0.191878      0.000000
      6.03872      6.03872      3.99473        -0.140351     -0.140351      0.000000
      2.06007      0.00519      2.05488         0.335155     -0.266711      0.264155
      2.06007      0.00519      5.93459         0.335155     -0.266711     -0.264155
      2.04738      4.08619      2.04219         0.089176     -0.043019     -0.106352
      2.04738      4.08619      5.94727         0.089176     -0.043019      0.106352
      6.02604      0.04324      2.01683         0.122804     -0.051647     -0.080611
      6.02604      0.04324      5.97264         0.122804     -0.051647      0.080611
      6.03872      4.04814      2.00414         0.150766     -0.219265      0.161712
      6.03872      4.04814      5.98532         0.150766     -0.219265     -0.161712
      0.00519      2.06007      2.05488        -0.266711      0.335155      0.264155
      0.00519      2.06007      5.93459        -0.266711      0.335155     -0.264155
      0.04324      6.02604      2.01683        -0.051647      0.122804     -0.080611
      0.04324      6.02604      5.97264        -0.051647      0.122804      0.080611
      4.08619      2.04738      2.04219        -0.043019      0.089176     -0.106352
      4.08619      2.04738      5.94727        -0.043019      0.089176      0.106352
      4.04814      6.03872      2.00414        -0.219265      0.150766      0.161712
      4.04814      6.03872      5.98532        -0.219265      0.150766     -0.161712
 -----------------------------------------------------------------------------------
    total drift:                                0.000118      0.000118      0.000002


--------------------------------------------------------------------------------------------------------


    POTLOK:  cpu time    1.12: real time    1.12


--------------------------------------------------------------------------------------------------------


 NEB: the previous image is higher in energy: T
 NEB: the next image is higher in energy    : F
 NEB: only prev energy greater

 NEB: Tangent
 ----------------------------------------------
      0.01946      0.01946      0.00000
      0.00234      0.04115      0.00000
      0.01946      0.02403      0.00000
      0.04115      0.00234      0.00000
      0.02403      0.01946      0.00000
      0.04115      0.04115      0.00000
      0.02403      0.02403      0.00000
     -0.69109     -0.69109      0.00000
      0.01945      0.01945      0.00000
      0.00234      0.04115      0.00000
      0.01945      0.02403      0.00000
      0.04115      0.00234      0.00000
      0.02403      0.01945      0.00000
      0.04115      0.04115      0.00000
      0.02403      0.02403      0.00000
      0.00234      0.00234      0.00000
      0.00234      0.00234      0.00000
      0.01945      0.04115      0.01712
      0.01945      0.04115     -0.01712
      0.04115      0.01946     -0.01712
      0.04115      0.01946      0.01712
      0.02403      0.02403      0.00000
      0.02403      0.02403      0.00000
      0.00234      0.00234      0.00000
      0.00234      0.00234      0.00000
      0.01946      0.04115     -0.01712
      0.01946      0.04115      0.01712
      0.04115      0.01945      0.01712
      0.04115      0.01945     -0.01712
      0.02403      0.02403      0.00000
      0.02403      0.02403      0.00000

 NEB: forces: par spring, perp REAL, dneb     0.000000    1.546852    0.000000
 NEB: distance to prev, next image, angle between     0.740845    0.740845  179.999999
 NEB: projections on to tangent (spring, REAL)     0.000000    0.774547

  FORCES: max atom, RMS     0.502992    0.277823
  FORCE total and by dimension    1.546852    0.333346
 Quasi-Newton relaxation of ions (Broydens 2nd method)
  g(Force)  = 0.530E+00   g(Stress)= 0.000E+00

 Reset! Starting new Quasi-Newton update for ions 


--------------------------------------------------------------------------------------------------------


    WAVPRE:  cpu time    0.33: real time    0.33
    FEWALD:  cpu time    0.01: real time    0.01
    ORTHCH:  cpu time    0.22: real time    0.22
     LOOP+:  cpu time   75.08: real time   75.11
   RESPFUN:  cpu time    0.00: real time    0.00


----------------------------------------- Iteration    2(   1)  ---------------------------------------


    POTLOK:  cpu time    1.06: real time    1.06
    SETDIJ:  cpu time    0.07: real time    0.07
     EDDAV:  cpu time    3.94: real time    3.94
       DOS:  cpu time    0.00: real time    0.00
    CHARGE:  cpu time    0.41: real time    0.41
    MIXING:  cpu time    0.03: real time    0.03
    --------------------------------------------
      LOOP:  cpu time    5.51: real time    5.51

 eigenvalue-minimisations  :   152
 total energy-change (2. order) :-0.9883530E-01  (-0.1058994E+00)
 number of electron   93.0000000 magnetization 
 augmentation part    -0.9947080 magnetization 

 Broyden mixing:
  rms(total) = 0.34824E-01    rms(broyden)= 0.34823E-01
  rms(prec ) = 0.91071E-01
  weight for this iteration     100.00

 Free energy of the ion-electron system (eV)
  ---------------------------------------------------
  alpha Z        PSCENC =        -6.32931246
  Ewald energy   TEWEN  =     -2248.94159091
  -1/2 Hartree   DENC   =       -29.39044231
  -exchange  EXHF       =         0.00000000
  -V(xc)+E(xc)   XCENC  =      -808.48255907
  PAW double counting   =      1103.89292339     -113.67989546
  entropy T*S    EENTRO =        -0.05038520
  eigenvalues    EBANDS =       343.82271676
  atomic energy  EATOM  =      1659.68123870
  ---------------------------------------------------
  free energy    TOTEN  =       -99.47730656 eV

  energy without entropy =      -99.42692135  energy(sigma->0) =      -99.46051149


--------------------------------------------------------------------------------------------------------




----------------------------------------- Iteration    2(   2)  ---------------------------------------


    POTLOK:  cpu time    1.05: real time    1.05
    SETDIJ:  cpu time    0.07: real time    0.07
     EDDAV:  cpu time    3.78: real time    3.78
       DOS:  cpu time    0.00: real time    0.00
    CHARGE:  cpu time    0.41: real time    0.42
    MIXING:  cpu time    0.03: real time    0.03
    --------------------------------------------
      LOOP:  cpu time    5.34: real time    5.34

 eigenvalue-minimisations  :   144
 total energy-change (2. order) : 0.7587921E-02  (-0.8061294E-02)
 number of electron   93.0000000 magnetization 
 augmentation part    -0.9952182 magnetization 

 Broyden mixing:
  rms(total) = 0.11120E-01    rms(broyden)= 0.11120E-01
  rms(prec ) = 0.24261E-01
  weight for this iteration     100.00

 eigenvalues of (default mixing * dielectric matrix)
  average eigenvalue GAMMA=   1.1346
  1.1346

 Free energy of the ion-electron system (eV)
  ---------------------------------------------------
  alpha Z        PSCENC =        -6.32931246
  Ewald energy   TEWEN  =     -2248.94159091
  -1/2 Hartree   DENC   =       -29.47403547
  -exchange  EXHF       =         0.00000000
  -V(xc)+E(xc)   XCENC  =      -808.48065778
  PAW double counting   =      1103.89111406     -113.67796678
  entropy T*S    EENTRO =        -0.05637872
  eigenvalues    EBANDS =       343.91787074
  atomic energy  EATOM  =      1659.68123870
  ---------------------------------------------------
  free energy    TOTEN  =       -99.46971863 eV

  energy without entropy =      -99.41333991  energy(sigma->0) =      -99.45092573


--------------------------------------------------------------------------------------------------------




----------------------------------------- Iteration    2(   3)  ---------------------------------------


    POTLOK:  cpu time    1.05: real time    1.05
    SETDIJ:  cpu time    0.07: real time    0.07
     EDDAV:  cpu time    4.09: real time    4.09
       DOS:  cpu time    0.00: real time    0.00
    CHARGE:  cpu time    0.41: real time    0.42
    MIXING:  cpu time    0.03: real time    0.03
    --------------------------------------------
      LOOP:  cpu time    5.65: real time    5.66

 eigenvalue-minimisations  :   160
 total energy-change (2. order) : 0.5079585E-03  (-0.5279989E-03)
 number of electron   93.0000000 magnetization 
 augmentation part    -0.9951673 magnetization 

 Broyden mixing:
  rms(total) = 0.51581E-02    rms(broyden)= 0.51581E-02
  rms(prec ) = 0.93538E-02
  weight for this iteration     100.00

 eigenvalues of (default mixing * dielectric matrix)
  average eigenvalue GAMMA=   1.2187
  0.8824  1.5550

 Free energy of the ion-electron system (eV)
  ---------------------------------------------------
  alpha Z        PSCENC =        -6.32931246
  Ewald energy   TEWEN  =     -2248.94159091
  -1/2 Hartree   DENC   =       -29.46615058
  -exchange  EXHF       =         0.00000000
  -V(xc)+E(xc)   XCENC  =      -808.48153623
  PAW double counting   =      1103.87668248     -113.66322569
  entropy T*S    EENTRO =        -0.05851672
  eigenvalues    EBANDS =       343.91320073
  atomic energy  EATOM  =      1659.68123870
  ---------------------------------------------------
  free energy    TOTEN  =       -99.46921068 eV

  energy without entropy =      -99.41069396  energy(sigma->0) =      -99.44970510


--------------------------------------------------------------------------------------------------------




----------------------------------------- Iteration    2(   4)  ---------------------------------------


    POTLOK:  cpu time    1.05: real time    1.05
    SETDIJ:  cpu time    0.07: real time    0.07
     EDDAV:  cpu time    3.94: real time    3.94
       DOS:  cpu time    0.00: real time    0.00
    --------------------------------------------
      LOOP:  cpu time    5.06: real time    5.06

 eigenvalue-minimisations  :   152
 total energy-change (2. order) : 0.6372826E-04  (-0.5881288E-04)
 number of electron   93.0000000 magnetization 
 augmentation part    -0.9951673 magnetization 

 Free energy of the ion-electron system (eV)
  ---------------------------------------------------
  alpha Z        PSCENC =        -6.32931246
  Ewald energy   TEWEN  =     -2248.94159091
  -1/2 Hartree   DENC   =       -29.46076166
  -exchange  EXHF       =         0.00000000
  -V(xc)+E(xc)   XCENC  =      -808.48207109
  PAW double counting   =      1103.87197431     -113.65857208
  entropy T*S    EENTRO =        -0.05824349
  eigenvalues    EBANDS =       343.90819174
  atomic energy  EATOM  =      1659.68123870
  ---------------------------------------------------
  free energy    TOTEN  =       -99.46914695 eV

  energy without entropy =      -99.41090346  energy(sigma->0) =      -99.44973245


--------------------------------------------------------------------------------------------------------




 average (electrostatic) potential at core
  the test charge radii are     1.0406
  (the norm of the test charge is              1.0000)
       1 -72.6177       2 -72.8139       3 -72.5155       4 -72.8139       5 -72.5155
       6 -72.5959       7 -72.6042       8 -72.8958       9 -72.7007      10 -72.8246
      11 -72.2371      12 -72.8246      13 -72.2371      14 -72.2941      15 -72.5837
      16 -72.6683      17 -72.6683      18 -72.7816      19 -72.7816      20 -72.7265
      21 -72.7265      22 -72.6309      23 -72.6309      24 -72.6683      25 -72.6683
      26 -72.7265      27 -72.7265      28 -72.7816      29 -72.7816      30 -72.6309
      31 -72.6309
 
 
 
 E-fermi :   8.2030     XC(G=0): -10.1710     alpha+bet :-14.9207
   add alpha+bet to get absolut eigen values

 k-point   1 :       0.0000    0.0000    0.0000
  band No.  band energies     occupation 
      1      -3.2418      2.00000
      2      -1.1128      2.00000
      3      -1.0525      2.00000
      4      -1.0033      2.00000
      5      -0.9950      2.00000
      6      -0.8626      2.00000
      7      -0.5891      2.00000
      8       1.1129      2.00000
      9       1.1198      2.00000
     10       1.1914      2.00000
     11       1.1930      2.00000
     12       1.2262      2.00000
     13       1.2632      2.00000
     14       1.2677      2.00000
     15       1.3537      2.00000
     16       1.4713      2.00000
     17       1.4803      2.00000
     18       1.5278      2.00000
     19       2.2616      2.00000
     20       3.2903      2.00000
     21       3.4494      2.00000
     22       3.5134      2.00000
     23       3.5244      2.00000
     24       3.6210      2.00000
     25       3.6512      2.00000
     26       3.8044      2.00000
     27       4.4032      2.00000
     28       5.1735      2.00000
     29       5.1834      2.00000
     30       5.2158      2.00000
     31       6.4601      2.00000
     32       6.5440      2.00000
     33       6.7621      2.00000
     34       7.0277      2.00000
     35       7.0837      2.00000
     36       7.0845      2.00000
     37       7.1227      2.00000
     38       7.1264      2.00000
     39       7.2064      2.00000
     40       7.2389      2.00000
     41       7.3385      2.00000
     42       7.4247      2.00000
     43       7.6334      2.00043
     44       7.6351      2.00045
     45       7.6357      2.00045
     46       8.0445      1.97632
     47       8.2759      0.42637
     48       8.2891      0.34114
     49       8.3226      0.16210
     50       8.3269      0.14301
     51       8.5141     -0.05027
     52       9.1227      0.00000
     53       9.1772      0.00000
     54       9.1996      0.00000
     55       9.2706      0.00000
     56       9.3042      0.00000
     57       9.3548      0.00000
     58       9.3563      0.00000
     59       9.3675      0.00000
     60       9.4086      0.00000
     61       9.4109      0.00000
     62       9.4456      0.00000


--------------------------------------------------------------------------------------------------------


 soft charge-density along one line, spin component           1
         0         1         2         3         4         5         6         7         8         9
 total charge-density along one line
 
 pseudopotential strength for first ion, spin component:           1
  8.445  -0.006   0.000   0.000   0.000   0.000   0.000   0.000
 -0.006   0.000   0.000   0.000   0.000   0.000   0.000   0.000
  0.000   0.000   1.988   0.000   0.000  -0.027   0.000   0.000
  0.000   0.000   0.000   1.988   0.000   0.000  -0.027   0.000
  0.000   0.000   0.000   0.000   1.988   0.000   0.000  -0.027
  0.000   0.000  -0.027   0.000   0.000  -0.012   0.000   0.000
  0.000   0.000   0.000  -0.027   0.000   0.000  -0.012   0.000
  0.000   0.000   0.000   0.000  -0.027   0.000   0.000  -0.012
 total augmentation occupancy for first ion, spin component:           1
  1.143  -0.572  -0.008   0.000  -0.008   0.002   0.000   0.002
 -0.572   0.498  -0.005   0.000  -0.005   0.000   0.000   0.000
 -0.008  -0.005   0.861   0.000  -0.015  -0.168   0.000   0.002
  0.000   0.000   0.000   0.800   0.000   0.000  -0.161   0.000
 -0.008  -0.005  -0.015   0.000   0.861   0.002   0.000  -0.168
  0.002   0.000  -0.168   0.000   0.002   0.041   0.000   0.000
  0.000   0.000   0.000  -0.161   0.000   0.000   0.040   0.000
  0.002   0.000   0.002   0.000  -0.168   0.000   0.000   0.041


------------------------ aborting loop because EDIFF is reached ----------------------------------------




--------------------------------------------------------------------------------------------------------



  FREE ENERGIE OF THE ION-ELECTRON SYSTEM (eV)
  ---------------------------------------------------
  free  energy   TOTEN  =       -99.469147 eV

  energy  without entropy=      -99.410903  energy(sigma->0) =      -99.449732
 
    CHARGE:  cpu time    0.41: real time    0.41
    FORLOC:  cpu time    0.27: real time    0.27
    FORNL :  cpu time    1.62: real time    1.62
    STRESS:  cpu time    2.03: real time    2.03
    FORCOR:  cpu time    1.27: real time    1.27
    FORHAR:  cpu time    0.51: real time    0.51
    MIXING:  cpu time    0.03: real time    0.03

  FORCE on cell =-STRESS in cart. coord.  units (eV):
  Direction    XX          YY          ZZ          XY          YZ          ZX
  --------------------------------------------------------------------------------------
  Alpha Z    -6.32931    -6.32931    -6.32931
  Ewald    -751.29742  -751.29742  -746.35584    -8.08939     0.00000     0.00000
  Hartree    11.38158    11.38158     6.67529    -0.90569     0.00000     0.00000
  E(xc)    -266.42533  -266.42533  -266.55542     0.08120     0.00000     0.00000
  Local      -7.14320    -7.14320    -5.21689     9.15301     0.00000     0.00000
  n-local   562.78930   562.78929   563.80946    -1.14969     0.00000     0.00000
  augment   -26.60105   -26.60105   -26.45857     0.04741     0.00000     0.00000
  Kinetic   486.47882   486.47882   486.37705     0.87180     0.00000     0.00000
  Fock        0.00000     0.00000     0.00000     0.00000     0.00000     0.00000
  -------------------------------------------------------------------------------------
  Total       2.85337     2.85337     5.94577     0.00864     0.00000     0.00000
  in kB       8.96430     8.96430    18.67955     0.02714     0.00000     0.00000
  external pressure =       12.20 kB  Pullay stress =        0.00 kB


 VOLUME and BASIS-vectors are now :
 -----------------------------------------------------------------------------
  energy-cutoff  :      360.00
  volume of cell :      509.98
      direct lattice vectors                 reciprocal lattice vectors
     7.989461639  0.000000000  0.000000000     0.125164879  0.000000000  0.000000000
     0.000000000  7.989461639  0.000000000     0.000000000  0.125164879  0.000000000
     0.000000000  0.000000000  7.989461639     0.000000000  0.000000000  0.125164879

  length of vectors
     7.989461639  7.989461639  7.989461639     0.125164879  0.125164879  0.125164879


 FORCES acting on ions
    electron-ion (+dipol)            ewald-force                    non-local-force                 convergence-correction
 -----------------------------------------------------------------------------------------------
   -.142E+01 -.142E+01 0.120E-06   0.133E+01 0.133E+01 0.266E-14   0.146E+00 0.146E+00 0.000E+00   -.321E-02 -.321E-02 0.111E-12
   -.124E+02 0.800E+01 -.195E-08   0.114E+02 -.745E+01 0.200E-14   0.108E+01 -.702E+00 0.000E+00   -.924E-03 0.315E-02 -.114E-12
   -.356E+01 0.823E+00 0.745E-07   0.340E+01 -.864E+00 0.139E-14   0.305E-01 0.116E+00 0.000E+00   -.611E-02 0.431E-02 0.101E-12
   0.800E+01 -.124E+02 -.195E-08   -.745E+01 0.114E+02 -.833E-15   -.702E+00 0.108E+01 0.000E+00   0.315E-02 -.924E-03 -.247E-12
   0.823E+00 -.356E+01 0.745E-07   -.864E+00 0.340E+01 -.777E-15   0.116E+00 0.305E-01 0.000E+00   0.431E-02 -.611E-02 0.225E-12
   0.114E+02 0.114E+02 -.735E-09   -.110E+02 -.110E+02 0.105E-14   -.428E+00 -.428E+00 0.000E+00   0.520E-02 0.520E-02 -.235E-12
   0.329E+01 0.329E+01 0.302E-07   -.282E+01 -.282E+01 -.255E-14   -.297E+00 -.297E+00 0.000E+00   0.841E-02 0.841E-02 0.197E-12
   -.234E+01 -.234E+01 -.891E-07   0.450E+01 0.450E+01 0.455E-14   -.260E+01 -.260E+01 0.000E+00   -.359E-03 -.359E-03 -.129E-12
   -.417E+00 -.417E+00 0.131E-06   0.310E+00 0.310E+00 0.761E-14   0.251E-01 0.251E-01 0.000E+00   -.678E-02 -.678E-02 0.186E-12
   0.509E+01 0.380E+00 0.579E-07   -.428E+01 -.218E+00 -.455E-14   -.721E+00 0.732E-01 0.000E+00   -.505E-02 0.285E-02 -.249E-12
   0.190E+01 0.122E+01 0.110E-06   -.173E+01 -.806E+00 -.228E-14   -.588E-01 -.410E+00 0.000E+00   -.318E-02 0.505E-02 0.218E-12
   0.380E+00 0.509E+01 0.579E-07   -.218E+00 -.428E+01 -.527E-14   0.732E-01 -.721E+00 0.000E+00   0.285E-02 -.505E-02 -.647E-13
   0.122E+01 0.190E+01 0.110E-06   -.806E+00 -.173E+01 0.666E-15   -.410E+00 -.588E-01 0.000E+00   0.505E-02 -.318E-02 0.416E-13
   -.547E+01 -.547E+01 0.193E-06   0.537E+01 0.537E+01 0.339E-14   0.201E+00 0.201E+00 0.000E+00   0.994E-03 0.994E-03 -.132E-12
   -.164E+01 -.164E+01 0.149E-06   0.118E+01 0.118E+01 0.233E-14   0.283E+00 0.283E+00 0.000E+00   0.213E-02 0.213E-02 0.162E-12
   0.139E+01 -.107E+02 0.106E+02   -.122E+01 0.965E+01 -.102E+02   0.185E-01 0.885E+00 -.213E+00   -.485E-02 -.192E-02 0.464E-02
   0.139E+01 -.107E+02 -.106E+02   -.122E+01 0.965E+01 0.102E+02   0.185E-01 0.885E+00 0.213E+00   -.485E-02 -.192E-02 -.464E-02
   0.549E+00 0.115E+02 0.128E+02   -.389E+00 -.108E+02 -.122E+02   -.128E+00 -.753E+00 -.703E+00   -.753E-02 0.613E-02 0.424E-02
   0.549E+00 0.115E+02 -.128E+02   -.389E+00 -.108E+02 0.122E+02   -.128E+00 -.753E+00 0.703E+00   -.753E-02 0.613E-02 -.424E-02
   -.398E+01 -.148E+01 0.803E+01   0.358E+01 0.115E+01 -.754E+01   0.476E+00 0.325E+00 -.555E+00   0.115E-02 -.204E-02 0.815E-02
   -.398E+01 -.148E+01 -.803E+01   0.358E+01 0.115E+01 0.754E+01   0.476E+00 0.325E+00 0.555E+00   0.115E-02 -.204E-02 -.815E-02
   0.501E+00 0.365E+00 0.445E+01   -.270E+00 -.833E+00 -.411E+01   -.187E+00 0.378E+00 -.203E+00   0.416E-02 0.524E-02 0.826E-02
   0.501E+00 0.365E+00 -.445E+01   -.270E+00 -.833E+00 0.411E+01   -.187E+00 0.378E+00 0.203E+00   0.416E-02 0.524E-02 -.826E-02
   -.107E+02 0.139E+01 0.106E+02   0.965E+01 -.122E+01 -.102E+02   0.885E+00 0.185E-01 -.213E+00   -.192E-02 -.485E-02 0.464E-02
   -.107E+02 0.139E+01 -.106E+02   0.965E+01 -.122E+01 0.102E+02   0.885E+00 0.185E-01 0.213E+00   -.192E-02 -.485E-02 -.464E-02
   -.148E+01 -.398E+01 0.803E+01   0.115E+01 0.358E+01 -.754E+01   0.325E+00 0.476E+00 -.555E+00   -.204E-02 0.115E-02 0.815E-02
   -.148E+01 -.398E+01 -.803E+01   0.115E+01 0.358E+01 0.754E+01   0.325E+00 0.476E+00 0.555E+00   -.204E-02 0.115E-02 -.815E-02
   0.115E+02 0.549E+00 0.128E+02   -.108E+02 -.389E+00 -.122E+02   -.753E+00 -.128E+00 -.703E+00   0.613E-02 -.753E-02 0.424E-02
   0.115E+02 0.549E+00 -.128E+02   -.108E+02 -.389E+00 0.122E+02   -.753E+00 -.128E+00 0.703E+00   0.613E-02 -.753E-02 -.424E-02
   0.365E+00 0.501E+00 0.445E+01   -.833E+00 -.270E+00 -.411E+01   0.378E+00 -.187E+00 -.203E+00   0.524E-02 0.416E-02 0.826E-02
   0.365E+00 0.501E+00 -.445E+01   -.833E+00 -.270E+00 0.411E+01   0.378E+00 -.187E+00 0.203E+00   0.524E-02 0.416E-02 -.826E-02
 -----------------------------------------------------------------------------------------------
   0.122E+01 0.122E+01 0.202E-05   -.195E-13 -.444E-15 0.799E-14   -.123E+01 -.123E+01 0.000E+00   0.714E-02 0.714E-02 0.266E-12
 
 
 POSITION                                       TOTAL-FORCE (eV/Angst)
 -----------------------------------------------------------------------------------
      0.04309      0.04309      3.99473         0.051407      0.051407      0.000000
      0.00231      4.07516      0.00000         0.006509     -0.145077      0.000000
      0.02981      4.04520      3.99473        -0.134370      0.079805      0.000000
      4.07516      0.00231      0.00000        -0.145077      0.006509      0.000000
      4.04520      0.02981      3.99473         0.079805     -0.134370      0.000000
      4.07784      4.07784      0.00000        -0.047559     -0.047559      0.000000
      4.05413      4.05413      3.99473         0.181891      0.181891      0.000000
      0.51857      0.51857      0.00000        -0.436847     -0.436847      0.000000
      2.04462      2.04462      3.99473        -0.088814     -0.088814      0.000000
      2.06701      6.03921      0.00000         0.090580      0.238048      0.000000
      2.05910      6.04440      3.99473         0.110574      0.012650      0.000000
      6.03921      2.06701      0.00000         0.238048      0.090580      0.000000
      6.04440      2.05910      3.99473         0.012650      0.110574      0.000000
      6.03376      6.03376      0.00000         0.101205      0.101205      0.000000
      6.03106      6.03106      3.99473        -0.175413     -0.175413      0.000000
      2.07615     -0.00776      2.06762         0.179026     -0.137252      0.166768
      2.07615     -0.00776      5.92184         0.179026     -0.137252     -0.166768
      2.05096      4.08257      2.03642         0.024034     -0.013112     -0.077164
      2.05096      4.08257      5.95304         0.024034     -0.013112      0.077164
      6.03043      0.04002      2.01358         0.069231     -0.007607     -0.058225
[...]
  free energy    TOTEN  =       -99.64094864 eV

  energy without entropy =      -99.66695047  energy(sigma->0) =      -99.64961592


--------------------------------------------------------------------------------------------------------




----------------------------------------- Iteration   14(   2)  ---------------------------------------


    POTLOK:  cpu time    1.05: real time    1.05
    SETDIJ:  cpu time    0.07: real time    0.07
     EDDAV:  cpu time    3.93: real time    3.93
       DOS:  cpu time    0.00: real time    0.00
    --------------------------------------------
      LOOP:  cpu time    5.05: real time    5.06

 eigenvalue-minimisations  :   152
 total energy-change (2. order) : 0.6291691E-04  (-0.4900248E-04)
 number of electron   93.0000000 magnetization 
 augmentation part    -0.9970324 magnetization 

 Free energy of the ion-electron system (eV)
  ---------------------------------------------------
  alpha Z        PSCENC =        -6.32931246
  Ewald energy   TEWEN  =     -2251.24910953
  -1/2 Hartree   DENC   =       -27.77718259
  -exchange  EXHF       =         0.00000000
  -V(xc)+E(xc)   XCENC  =      -808.52287269
  PAW double counting   =      1104.24480598     -114.05100978
  entropy T*S    EENTRO =         0.02540271
  eigenvalues    EBANDS =       344.33715393
  atomic energy  EATOM  =      1659.68123870
  ---------------------------------------------------
  free energy    TOTEN  =       -99.64088572 eV

  energy without entropy =      -99.66628843  energy(sigma->0) =      -99.64935329


--------------------------------------------------------------------------------------------------------




 average (electrostatic) potential at core
  the test charge radii are     1.0406
  (the norm of the test charge is              1.0000)
       1 -72.5621       2 -72.8317       3 -72.4770       4 -72.8317       5 -72.4770
       6 -72.6602       7 -72.5269       8 -72.8485       9 -72.6346      10 -72.8110
      11 -72.2588      12 -72.8110      13 -72.2588      14 -72.3978      15 -72.4317
      16 -72.6546      17 -72.6546      18 -72.7833      19 -72.7833      20 -72.7148
      21 -72.7148      22 -72.6354      23 -72.6354      24 -72.6546      25 -72.6546
      26 -72.7148      27 -72.7148      28 -72.7833      29 -72.7833      30 -72.6354
      31 -72.6354
 
 
 
 E-fermi :   8.2091     XC(G=0): -10.1728     alpha+bet :-14.9207
   add alpha+bet to get absolut eigen values

 k-point   1 :       0.0000    0.0000    0.0000
  band No.  band energies     occupation 
      1      -3.2351      2.00000
      2      -1.1439      2.00000
      3      -1.0188      2.00000
      4      -0.9837      2.00000
      5      -0.8984      2.00000
      6      -0.8416      2.00000
      7      -0.6508      2.00000
      8       1.1003      2.00000
      9       1.1333      2.00000
     10       1.2062      2.00000
     11       1.2218      2.00000
     12       1.2705      2.00000
     13       1.3000      2.00000
     14       1.3354      2.00000
     15       1.3530      2.00000
     16       1.4655      2.00000
     17       1.4978      2.00000
     18       1.5188      2.00000
     19       2.1974      2.00000
     20       3.3119      2.00000
     21       3.5055      2.00000
     22       3.5134      2.00000
     23       3.5397      2.00000
     24       3.6331      2.00000
     25       3.6557      2.00000
     26       3.7660      2.00000
     27       4.3821      2.00000
     28       5.1798      2.00000
     29       5.1842      2.00000
     30       5.1937      2.00000
     31       6.4649      2.00000
     32       6.5500      2.00000
     33       6.7526      2.00000
     34       7.0228      2.00000
     35       7.0595      2.00000
     36       7.0862      2.00000
     37       7.2192      2.00000
     38       7.2271      2.00000
     39       7.2821      2.00000
     40       7.3139      2.00000
     41       7.3309      2.00000
     42       7.4136      2.00000
     43       7.5358      2.00002
     44       7.5618      2.00005
     45       7.6072      2.00018
     46       7.9628      2.07090
     47       8.2098      0.99369
     48       8.3675      0.02387
     49       8.3697      0.01823
     50       8.4337     -0.06727
     51       8.5432     -0.03966
     52       9.0880      0.00000
     53       9.1436      0.00000
     54       9.2570      0.00000
     55       9.2778      0.00000
     56       9.3185      0.00000
     57       9.3231      0.00000
     58       9.3266      0.00000
     59       9.3905      0.00000
     60       9.4162      0.00000
     61       9.4179      0.00000
     62       9.4767      0.00000


--------------------------------------------------------------------------------------------------------


 soft charge-density along one line, spin component           1
         0         1         2         3         4         5         6         7         8         9
 total charge-density along one line
 
 pseudopotential strength for first ion, spin component:           1
  8.443  -0.006   0.000   0.000   0.000   0.000   0.000   0.000
 -0.006   0.000   0.000   0.000   0.000   0.000   0.000   0.000
  0.000   0.000   1.989   0.000   0.000  -0.027   0.000   0.000
  0.000   0.000   0.000   1.989   0.000   0.000  -0.027   0.000
  0.000   0.000   0.000   0.000   1.989   0.000   0.000  -0.027
  0.000   0.000  -0.027   0.000   0.000  -0.012   0.000   0.000
  0.000   0.000   0.000  -0.027   0.000   0.000  -0.012   0.000
  0.000   0.000   0.000   0.000  -0.027   0.000   0.000  -0.012
 total augmentation occupancy for first ion, spin component:           1
  1.140  -0.580  -0.012   0.000  -0.012   0.002   0.000   0.002
 -0.580   0.509  -0.009   0.000  -0.009   0.002   0.000   0.002
 -0.012  -0.009   0.862   0.000  -0.011  -0.169   0.000   0.002
  0.000   0.000   0.000   0.816   0.000   0.000  -0.166   0.000
 -0.012  -0.009  -0.011   0.000   0.862   0.002   0.000  -0.169
  0.002   0.002  -0.169   0.000   0.002   0.041   0.000   0.000
  0.000   0.000   0.000  -0.166   0.000   0.000   0.042   0.000
  0.002   0.002   0.002   0.000  -0.169   0.000   0.000   0.041


------------------------ aborting loop because EDIFF is reached ----------------------------------------




--------------------------------------------------------------------------------------------------------



  FREE ENERGIE OF THE ION-ELECTRON SYSTEM (eV)
  ---------------------------------------------------
  free  energy   TOTEN  =       -99.640886 eV

  energy  without entropy=      -99.666288  energy(sigma->0) =      -99.649353
 
    CHARGE:  cpu time    0.41: real time    0.41
    FORLOC:  cpu time    0.27: real time    0.27
    FORNL :  cpu time    1.62: real time    1.62
    STRESS:  cpu time    2.02: real time    2.03
    FORCOR:  cpu time    1.27: real time    1.27
    FORHAR:  cpu time    0.51: real time    0.51
    MIXING:  cpu time    0.03: real time    0.03

  FORCE on cell =-STRESS in cart. coord.  units (eV):
  Direction    XX          YY          ZZ          XY          YZ          ZX
  --------------------------------------------------------------------------------------
  Alpha Z    -6.32931    -6.32931    -6.32931
  Ewald    -750.46856  -750.46856  -750.32082    -6.44057     0.00000     0.00000
  Hartree    12.15809    12.15809     3.46769    -2.12805     0.00000     0.00000
  E(xc)    -266.47686  -266.47686  -266.50549     0.01976     0.00000     0.00000
  Local      -9.71354    -9.71354     3.37304     8.70485     0.00000     0.00000
  n-local   564.28785   564.28785   563.69682    -0.44657     0.00000     0.00000
  augment   -26.71324   -26.71324   -26.37854    -0.00861     0.00000     0.00000
  Kinetic   485.97799   485.97799   486.20551     2.11530     0.00000     0.00000
  Fock        0.00000     0.00000     0.00000     0.00000     0.00000     0.00000
  -------------------------------------------------------------------------------------
  Total       2.72242     2.72242     7.20892     1.81611     0.00000     0.00000
  in kB       8.55290     8.55290    22.64790     5.70559     0.00000     0.00000
  external pressure =       13.25 kB  Pullay stress =        0.00 kB


 VOLUME and BASIS-vectors are now :
 -----------------------------------------------------------------------------
  energy-cutoff  :      360.00
  volume of cell :      509.98
      direct lattice vectors                 reciprocal lattice vectors
     7.989461639  0.000000000  0.000000000     0.125164879  0.000000000  0.000000000
     0.000000000  7.989461639  0.000000000     0.000000000  0.125164879  0.000000000
     0.000000000  0.000000000  7.989461639     0.000000000  0.000000000  0.125164879

  length of vectors
     7.989461639  7.989461639  7.989461639     0.125164879  0.125164879  0.125164879


 FORCES acting on ions
    electron-ion (+dipol)            ewald-force                    non-local-force                 convergence-correction
 -----------------------------------------------------------------------------------------------
   -.155E+01 -.155E+01 0.555E-07   0.135E+01 0.135E+01 -.144E-14   0.196E+00 0.196E+00 0.000E+00   0.361E-02 0.361E-02 -.177E-12
   -.920E+01 0.117E+01 -.860E-07   0.907E+01 -.279E+01 0.555E-15   0.136E+00 0.162E+01 0.000E+00   0.166E-02 -.138E-03 0.212E-12
   -.815E+01 0.211E+01 0.104E-07   0.700E+01 -.152E+01 0.555E-15   0.115E+01 -.582E+00 0.000E+00   0.349E-02 -.222E-02 -.183E-12
   0.117E+01 -.920E+01 -.860E-07   -.279E+01 0.907E+01 0.278E-14   0.162E+01 0.136E+00 0.000E+00   -.138E-03 0.166E-02 0.459E-12
   0.211E+01 -.815E+01 0.104E-07   -.152E+01 0.700E+01 0.472E-14   -.582E+00 0.115E+01 0.000E+00   -.222E-02 0.349E-02 -.384E-12
   0.752E+01 0.752E+01 0.156E-06   -.781E+01 -.781E+01 0.722E-14   0.284E+00 0.284E+00 0.000E+00   -.263E-02 -.263E-02 0.295E-12
   0.946E+01 0.946E+01 0.140E-06   -.749E+01 -.749E+01 -.128E-14   -.196E+01 -.196E+01 0.000E+00   -.348E-02 -.348E-02 -.282E-12
   -.157E+01 -.157E+01 -.195E-07   0.391E+01 0.391E+01 -.200E-14   -.250E+01 -.250E+01 0.000E+00   0.607E-03 0.607E-03 0.259E-12
   -.237E+01 -.237E+01 -.941E-07   0.190E+01 0.190E+01 0.244E-14   0.473E+00 0.473E+00 0.000E+00   0.558E-03 0.558E-03 -.239E-12
   0.320E+01 0.496E+01 0.913E-07   -.280E+01 -.326E+01 0.333E-14   -.387E+00 -.172E+01 0.000E+00   -.976E-03 0.280E-03 0.369E-12
   0.370E+01 0.220E+01 -.710E-07   -.340E+01 -.184E+01 -.228E-14   -.302E+00 -.333E+00 0.000E+00   0.385E-03 -.134E-02 -.355E-12
   0.496E+01 0.320E+01 0.913E-07   -.326E+01 -.280E+01 0.283E-14   -.172E+01 -.387E+00 0.000E+00   0.280E-03 -.976E-03 0.304E-12
   0.220E+01 0.370E+01 -.710E-07   -.184E+01 -.340E+01 0.355E-14   -.333E+00 -.302E+00 0.000E+00   -.134E-02 0.385E-03 -.259E-12
   -.301E+01 -.301E+01 0.122E-06   0.309E+01 0.309E+01 -.205E-14   -.819E-01 -.819E-01 0.000E+00   0.175E-02 0.175E-02 0.352E-12
   -.640E+01 -.640E+01 0.420E-07   0.461E+01 0.461E+01 0.555E-16   0.179E+01 0.179E+01 0.000E+00   -.578E-03 -.578E-03 -.178E-12
   0.813E+00 -.101E+02 0.882E+01   -.607E+00 0.926E+01 -.877E+01   -.207E+00 0.891E+00 -.637E-01   -.120E-02 0.190E-02 0.116E-02
   0.813E+00 -.101E+02 -.882E+01   -.607E+00 0.926E+01 0.877E+01   -.207E+00 0.891E+00 0.637E-01   -.120E-02 0.190E-02 -.116E-02
   0.163E+01 0.919E+01 0.111E+02   -.122E+01 -.909E+01 -.109E+02   -.402E+00 -.742E-01 -.149E+00   0.536E-03 -.266E-02 0.199E-02
   0.163E+01 0.919E+01 -.111E+02   -.122E+01 -.909E+01 0.109E+02   -.402E+00 -.742E-01 0.149E+00   0.536E-03 -.266E-02 -.199E-02
   -.432E+00 -.135E+01 0.989E+01   0.885E+00 0.111E+01 -.921E+01   -.444E+00 0.243E+00 -.670E+00   0.382E-03 0.392E-02 -.110E-02
   -.432E+00 -.135E+01 -.989E+01   0.885E+00 0.111E+01 0.921E+01   -.444E+00 0.243E+00 0.670E+00   0.382E-03 0.392E-02 0.110E-02
   -.795E+00 0.799E+00 0.124E+02   0.696E+00 -.105E+01 -.104E+02   0.102E+00 0.257E+00 -.195E+01   -.299E-03 -.421E-02 0.950E-03
   -.795E+00 0.799E+00 -.124E+02   0.696E+00 -.105E+01 0.104E+02   0.102E+00 0.257E+00 0.195E+01   -.299E-03 -.421E-02 -.950E-03
   -.101E+02 0.813E+00 0.882E+01   0.926E+01 -.607E+00 -.877E+01   0.891E+00 -.207E+00 -.637E-01   0.190E-02 -.120E-02 0.116E-02
   -.101E+02 0.813E+00 -.882E+01   0.926E+01 -.607E+00 0.877E+01   0.891E+00 -.207E+00 0.637E-01   0.190E-02 -.120E-02 -.116E-02
   -.135E+01 -.432E+00 0.989E+01   0.111E+01 0.885E+00 -.921E+01   0.243E+00 -.444E+00 -.670E+00   0.392E-02 0.382E-03 -.110E-02
   -.135E+01 -.432E+00 -.989E+01   0.111E+01 0.885E+00 0.921E+01   0.243E+00 -.444E+00 0.670E+00   0.392E-02 0.382E-03 0.110E-02
   0.919E+01 0.163E+01 0.111E+02   -.909E+01 -.122E+01 -.109E+02   -.742E-01 -.402E+00 -.149E+00   -.266E-02 0.536E-03 0.199E-02
   0.919E+01 0.163E+01 -.111E+02   -.909E+01 -.122E+01 0.109E+02   -.742E-01 -.402E+00 0.149E+00   -.266E-02 0.536E-03 -.199E-02
   0.799E+00 -.795E+00 0.124E+02   -.105E+01 0.696E+00 -.104E+02   0.257E+00 0.102E+00 -.195E+01   -.421E-02 -.299E-03 0.950E-03
   0.799E+00 -.795E+00 -.124E+02   -.105E+01 0.696E+00 0.104E+02   0.257E+00 0.102E+00 0.195E+01   -.421E-02 -.299E-03 -.950E-03
 -----------------------------------------------------------------------------------------------
   0.149E+01 0.149E+01 0.749E-06   0.622E-14 0.119E-13 0.888E-14   -.149E+01 -.149E+01 0.000E+00   -.229E-02 -.229E-02 -.456E-12
 
 
 POSITION                                       TOTAL-FORCE (eV/Angst)
 -----------------------------------------------------------------------------------
      0.03201      0.03201      3.99473         0.000962      0.000962      0.000000
      0.09211      3.93115      0.00000         0.010133     -0.002330      0.000000
     -0.01463      4.09500      3.99473         0.002050      0.004362      0.000000
      3.93115      0.09211      0.00000        -0.002330      0.010133      0.000000
      4.09500     -0.01463      3.99473         0.004362      0.002050      0.000000
      4.04584      4.04584      0.00000        -0.008098     -0.008098      0.000000
      4.12049      4.12049      3.99473         0.003432      0.003432      0.000000
      0.48247      0.48247      0.00000        -0.152771     -0.152771      0.000000
      2.02483      2.02483      3.99473         0.001432      0.001432      0.000000
      2.05062      6.13340      0.00000         0.014381     -0.017535      0.000000
      2.05514      6.03102      3.99473        -0.002571      0.018037      0.000000
      6.13340      2.05062      0.00000        -0.017535      0.014381      0.000000
      6.03102      2.05514      3.99473         0.018037     -0.002571      0.000000
      6.04312      6.04312      0.00000         0.001606      0.001606      0.000000
      5.97992      5.97992      3.99473         0.002584      0.002584      0.000000
      2.08162     -0.00390      2.07726        -0.002488      0.012553     -0.014177
      2.08162     -0.00390      5.91221        -0.002488      0.012553      0.014177
      2.07059      4.05555      2.00452         0.011119      0.020231     -0.000321
      2.07059      4.05555      5.98494         0.011119      0.020231      0.000321
      6.06842      0.03907      2.01060         0.010121      0.006900      0.007229
      6.06842      0.03907      5.97886         0.010121      0.006900     -0.007229
      6.03390      4.04028      2.09064         0.002038      0.001688     -0.007488
      6.03390      4.04028      5.89882         0.002038      0.001688      0.007488
     -0.00390      2.08162      2.07726         0.012553     -0.002488     -0.014177
     -0.00390      2.08162      5.91221         0.012553     -0.002488      0.014177
      0.03907      6.06842      2.01060         0.006900      0.010121      0.007229
      0.03907      6.06842      5.97886         0.006900      0.010121     -0.007229
      4.05555      2.07059      2.00452         0.020231      0.011119     -0.000321
      4.05555      2.07059      5.98494         0.020231      0.011119      0.000321
      4.04028      6.03390      2.09064         0.001688      0.002038     -0.007488
      4.04028      6.03390      5.89882         0.001688      0.002038      0.007488
 -----------------------------------------------------------------------------------
    total drift:                                0.000746      0.000746      0.000001
 d Force = 0.4533330E-03[ 0.417E-03, 0.490E-03]  d Energy = 0.4560316E-03-0.270E-05
 d Force = 0.1161723E+00[ 0.115E+00, 0.117E+00]  d Ewald  = 0.1161723E+00 0.418E-07


--------------------------------------------------------------------------------------------------------


    POTLOK:  cpu time    1.11: real time    1.11


--------------------------------------------------------------------------------------------------------


 NEB: the previous image is higher in energy: T
 NEB: the next image is higher in energy    : F
 NEB: only prev energy greater

 NEB: Tangent
 ----------------------------------------------
      0.00839      0.00839      0.00000
      0.02323      0.04447      0.00000
     -0.01159      0.02781      0.00000
      0.04447      0.02323      0.00000
      0.02781     -0.01159      0.00000
      0.02462      0.02462      0.00000
      0.02636      0.02636      0.00000
     -0.67578     -0.67578      0.00000
     -0.01450     -0.01450      0.00000
      0.07650     -0.02809      0.00000
     -0.01464      0.06431      0.00000
     -0.02809      0.07650      0.00000
      0.06431     -0.01464      0.00000
      0.02184      0.02184      0.00000
      0.03419      0.03419      0.00000
     -0.00601      0.02563     -0.07577
     -0.00601      0.02563      0.07577
      0.02382      0.05161     -0.00172
      0.02382      0.05161      0.00172
      0.03798      0.03515      0.00578
      0.03798      0.03515     -0.00578
      0.01699      0.01126      0.00636
      0.01699      0.01126     -0.00636
      0.02563     -0.00601     -0.07577
      0.02563     -0.00601      0.07577
      0.03515      0.03798      0.00578
      0.03515      0.03798     -0.00578
      0.05161      0.02382     -0.00172
      0.05161      0.02382      0.00172
      0.01126      0.01699      0.00636
      0.01126      0.01699     -0.00636

 NEB: forces: par spring, perp REAL, dneb     0.002950    0.048394    0.000000
 NEB: distance to prev, next image, angle between     0.811534    0.812124  147.884673
 NEB: projections on to tangent (spring, REAL)     0.002950    0.226104

  FORCES: max atom, RMS     0.019223    0.008708
  FORCE total and by dimension    0.048484    0.013592
 Quasi-Newton relaxation of ions (Broydens 2nd method)
  g(Force)  = 0.311E-03   g(Stress)= 0.000E+00

 retain information from N=  1 steps
 eigenvalues of (default step * inverse Hessian matrix)
  average eigenvalue of G=   5.2467
 eigenvalue spectrum of G is  5.2467


--------------------------------------------------------------------------------------------------------


  
 reached required accuracy - stopping structural energy minimisation
     LOOP+:  cpu time   19.02: real time   19.03
    4ORBIT:  cpu time    0.00: real time    0.00

 total amount of memory used by VASP on root node  90106. kBytes
========================================================================

   base      :    30000. kBytes
   nonl-proj :     2213. kBytes
   fftplans  :    18956. kBytes
   grid      :    34840. kBytes
   one-center:       49. kBytes
   wavefun   :     4048. kBytes
 
  
  
 General timing and accounting informations for this job:
 ========================================================
  
                  Total CPU time used (sec):      474.446
                            User time (sec):      473.131
                          System time (sec):        1.315
                         Elapsed time (sec):      474.892
  
                   Maximum memory used (kb):           0.
                   Average memory used (kb):           0.
  
                          Minor page faults:       443942
                          Major page faults:           10
                 Voluntary context switches:         3204
