   7   7   0   0
  0.2314286E+02  0.6164414E-09  0.6633250E-09  0.7348469E-09  0.1000000E-16
  1.000000000000000E-004
  CAR 
 unknown system                          
      7.84053356    -16.48998466  301      3.73343778      1.00000000
    -16.490  0.0000E+00  0.0000E+00
    -16.409  0.0000E+00  0.0000E+00
    -16.328  0.0000E+00  0.0000E+00
    -16.247  0.0000E+00  0.0000E+00
    -16.166 -0.1915E-28 -0.1553E-29
    -16.084 -0.1379E-25 -0.1120E-26
    -16.003 -0.7134E-23 -0.5797E-24
    -15.922 -0.2648E-20 -0.2153E-21
    -15.841 -0.7049E-18 -0.5738E-19
    -15.760 -0.1345E-15 -0.1097E-16
    -15.679 -0.1839E-13 -0.1502E-14
    -15.598 -0.1740E-11 -0.1426E-12
    -15.517 -0.1212E-09 -0.9971E-11
    -15.436 -0.6013E-08 -0.4976E-09
    -15.355 -0.2122E-06 -0.1771E-07
    -15.273 -0.5308E-05 -0.4482E-06
    -15.192 -0.9364E-04 -0.8043E-05
    -15.111 -0.1156E-02 -0.1018E-03
    -15.030 -0.9858E-02 -0.9013E-03
    -14.949 -0.5671E-01 -0.5501E-02
    -14.868 -0.2090E+00 -0.2245E-01
    -14.787 -0.4222E+00 -0.5669E-01
    -14.706 -0.7759E-01 -0.6298E-01
    -14.625  0.2005E+01  0.9959E-01
    -14.544  0.5730E+01  0.5643E+00
    -14.462  0.8217E+01  0.1231E+01
    -14.381  0.6845E+01  0.1786E+01
    -14.300  0.3108E+01  0.2038E+01
    -14.219  0.3538E+00  0.2067E+01
    -14.138 -0.4261E+00  0.2032E+01
    -14.057 -0.2837E+00  0.2009E+01
    -13.976 -0.9081E-01  0.2002E+01
    -13.895 -0.1807E-01  0.2000E+01
    -13.814 -0.2396E-02  0.2000E+01
    -13.733 -0.2181E-03  0.2000E+01
    -13.651 -0.1385E-04  0.2000E+01
    -13.570 -0.6189E-06  0.2000E+01
    -13.489 -0.1957E-07  0.2000E+01
    -13.408 -0.4399E-09  0.2000E+01
    -13.327 -0.7047E-11  0.2000E+01
    -13.246 -0.9686E-13  0.2000E+01
    -13.165 -0.1417E-11  0.2000E+01
    -13.084 -0.1001E-09  0.2000E+01
    -13.003 -0.5048E-08  0.2000E+01
    -12.922 -0.1810E-06  0.2000E+01
    -12.840 -0.4602E-05  0.2000E+01
    -12.759 -0.8254E-04  0.2000E+01
    -12.678 -0.1036E-02  0.2000E+01
    -12.597 -0.8995E-02  0.1999E+01
    -12.516 -0.5275E-01  0.1995E+01
    -12.435 -0.1989E+00  0.1979E+01
    -12.354 -0.4165E+00  0.1945E+01
    -12.273 -0.1238E+00  0.1935E+01
    -12.192  0.1859E+01  0.2086E+01
    -12.110  0.5553E+01  0.2536E+01
    -12.029  0.8179E+01  0.3199E+01
    -11.948  0.6989E+01  0.3766E+01
    -11.867  0.3282E+01  0.4032E+01
    -11.786  0.4346E+00  0.4068E+01
    -11.705 -0.4202E+00  0.4034E+01
    -11.624 -0.2950E+00  0.4010E+01
    -11.543 -0.9688E-01  0.4002E+01
    -11.462 -0.1967E-01  0.4000E+01
    -11.381 -0.2655E-02  0.4000E+01
    -11.299 -0.2460E-03  0.4000E+01
    -11.218 -0.1588E-04  0.4000E+01
    -11.137 -0.7212E-06  0.4000E+01
    -11.056 -0.2318E-07  0.4000E+01
    -10.975 -0.5293E-09  0.4000E+01
    -10.894 -0.8613E-11  0.4000E+01
    -10.813 -0.9866E-13  0.4000E+01
    -10.732 -0.1325E-13  0.4000E+01
    -10.651 -0.1285E-11  0.4000E+01
    -10.570 -0.9152E-10  0.4000E+01
    -10.488 -0.4648E-08  0.4000E+01
    -10.407 -0.1679E-06  0.4000E+01
    -10.326 -0.4302E-05  0.4000E+01
    -10.245 -0.7775E-04  0.4000E+01
    -10.164 -0.9840E-03  0.4000E+01
    -10.083 -0.8613E-02  0.3999E+01
    -10.002 -0.5096E-01  0.3995E+01
     -9.921 -0.1942E+00  0.3979E+01
     -9.840 -0.4136E+00  0.3946E+01
     -9.759 -0.1441E+00  0.3934E+01
     -9.677  0.1792E+01  0.4079E+01
     -9.596  0.5469E+01  0.4523E+01
     -9.515  0.8159E+01  0.5185E+01
     -9.434  0.7055E+01  0.5757E+01
     -9.353  0.3364E+01  0.6030E+01
     -9.272  0.4742E+00  0.6068E+01
     -9.191 -0.4167E+00  0.6034E+01
     -9.110 -0.3003E+00  0.6010E+01
     -9.029 -0.9984E-01  0.6002E+01
     -8.948 -0.2046E-01  0.6000E+01
     -8.866 -0.2786E-02  0.6000E+01
     -8.785 -0.2602E-03  0.6000E+01
     -8.704 -0.1693E-04  0.6000E+01
     -8.623 -0.7748E-06  0.6000E+01
     -8.542 -0.2509E-07  0.6000E+01
     -8.461 -0.5773E-09  0.6000E+01
     -8.380 -0.9457E-11  0.6000E+01
     -8.299 -0.1150E-12  0.6000E+01
     -8.218  0.0000E+00  0.6000E+01
     -8.137  0.0000E+00  0.6000E+01
     -8.055  0.0000E+00  0.6000E+01
     -7.974  0.0000E+00  0.6000E+01
     -7.893  0.0000E+00  0.6000E+01
     -7.812  0.0000E+00  0.6000E+01
     -7.731 -0.7177E-26  0.6000E+01
     -7.650 -0.3835E-23  0.6000E+01
     -7.569 -0.1472E-20  0.6000E+01
     -7.488 -0.4054E-18  0.6000E+01
     -7.407 -0.8004E-16  0.6000E+01
     -7.325 -0.1132E-13  0.6000E+01
     -7.244 -0.1109E-11  0.6000E+01
     -7.163 -0.7992E-10  0.6000E+01
     -7.082 -0.4105E-08  0.6000E+01
     -7.001 -0.1500E-06  0.6000E+01
     -6.920 -0.3886E-05  0.6000E+01
     -6.839 -0.7106E-04  0.6000E+01
     -6.758 -0.9102E-03  0.6000E+01
     -6.677 -0.8066E-02  0.5999E+01
     -6.596 -0.4838E-01  0.5995E+01
     -6.514 -0.1873E+00  0.5980E+01
     -6.433 -0.4087E+00  0.5947E+01
     -6.352 -0.1732E+00  0.5933E+01
     -6.271  0.1693E+01  0.6070E+01
     -6.190  0.5343E+01  0.6504E+01
     -6.109  0.8124E+01  0.7162E+01
     -6.028  0.7151E+01  0.7742E+01
     -5.947  0.3489E+01  0.8025E+01
     -5.866  0.5344E+00  0.8069E+01
     -5.785 -0.4223E+00  0.8034E+01
     -5.703 -0.3733E+00  0.8004E+01
     -5.622 -0.3335E+00  0.7977E+01
     -5.541 -0.4516E+00  0.7940E+01
     -5.460  0.1930E-01  0.7942E+01
     -5.379  0.2295E+01  0.8128E+01
     -5.298  0.6060E+01  0.8620E+01
     -5.217  0.8258E+01  0.9289E+01
     -5.136  0.6527E+01  0.9819E+01
     -5.055  0.2661E+01  0.1003E+02
     -4.974 -0.1252E+00  0.1002E+02
     -4.892 -0.8101E+00  0.9959E+01
     -4.811  0.5220E+00  0.1000E+02
     -4.730  0.3879E+01  0.1032E+02
     -4.649  0.7461E+01  0.1092E+02
     -4.568  0.7953E+01  0.1157E+02
     -4.487  0.4868E+01  0.1196E+02
     -4.406  0.1345E+01  0.1207E+02
     -4.325 -0.2916E+00  0.1205E+02
     -4.244 -0.5105E+00  0.1200E+02
     -4.163 -0.5010E+00  0.1196E+02
     -4.081 -0.4167E+00  0.1193E+02
     -4.000  0.7839E+00  0.1199E+02
     -3.919  0.3969E+01  0.1232E+02
     -3.838  0.7483E+01  0.1292E+02
     -3.757  0.7951E+01  0.1357E+02
     -3.676  0.4857E+01  0.1396E+02
     -3.595  0.1341E+01  0.1407E+02
     -3.514 -0.2664E+00  0.1405E+02
     -3.433 -0.3869E+00  0.1402E+02
     -3.352 -0.1625E+00  0.1400E+02
     -3.270 -0.3994E-01  0.1400E+02
     -3.189 -0.1004E-01  0.1400E+02
     -3.108 -0.2684E-01  0.1400E+02
     -3.027 -0.1202E+00  0.1399E+02
     -2.946 -0.3336E+00  0.1396E+02
     -2.865 -0.3832E+00  0.1393E+02
     -2.784  0.7489E+00  0.1399E+02
     -2.703  0.3889E+01  0.1431E+02
     -2.622  0.7391E+01  0.1491E+02
     -2.540  0.7800E+01  0.1554E+02
     -2.459  0.4522E+01  0.1590E+02
     -2.378  0.1156E+01  0.1600E+02
     -2.297  0.1192E+01  0.1609E+02
     -2.216  0.4449E+01  0.1646E+02
     -2.135  0.7604E+01  0.1707E+02
     -2.054  0.8346E+01  0.1775E+02
     -1.973  0.8166E+01  0.1841E+02
     -1.892  0.8414E+01  0.1909E+02
     -1.811  0.7261E+01  0.1968E+02
     -1.729  0.3955E+01  0.2000E+02
     -1.648  0.8561E+00  0.2007E+02
     -1.567 -0.3700E+00  0.2004E+02
     -1.486 -0.3589E+00  0.2001E+02
     -1.405 -0.1360E+00  0.2000E+02
     -1.324 -0.3088E-01  0.2000E+02
     -1.243 -0.4610E-02  0.2000E+02
     -1.162 -0.4695E-03  0.2000E+02
     -1.081 -0.3429E-04  0.2000E+02
     -1.000 -0.2429E-04  0.2000E+02
     -0.918 -0.3357E-03  0.2000E+02
     -0.837 -0.3464E-02  0.2000E+02
     -0.756 -0.2446E-01  0.2000E+02
     -0.675 -0.1142E+00  0.1999E+02
     -0.594 -0.3245E+00  0.1996E+02
     -0.513 -0.3945E+00  0.1993E+02
     -0.432  0.6691E+00  0.1998E+02
     -0.351  0.3748E+01  0.2029E+02
     -0.270  0.7337E+01  0.2088E+02
     -0.189  0.8038E+01  0.2154E+02
     -0.107  0.5081E+01  0.2195E+02
     -0.026  0.1499E+01  0.2207E+02
      0.055 -0.2267E+00  0.2205E+02
      0.136 -0.3976E+00  0.2202E+02
      0.217 -0.1739E+00  0.2200E+02
      0.298 -0.4631E-01  0.2200E+02
      0.379 -0.2804E-01  0.2200E+02
      0.460 -0.1026E+00  0.2199E+02
      0.541 -0.3038E+00  0.2197E+02
      0.622 -0.4141E+00  0.2193E+02
      0.704  0.5007E+00  0.2197E+02
      0.785  0.3419E+01  0.2225E+02
      0.866  0.7097E+01  0.2282E+02
      0.947  0.8144E+01  0.2349E+02
      1.028  0.5414E+01  0.2392E+02
      1.109  0.1749E+01  0.2407E+02
      1.190 -0.1572E+00  0.2405E+02
      1.271 -0.4138E+00  0.2402E+02
      1.352 -0.2089E+00  0.2400E+02
      1.433 -0.1392E+00  0.2399E+02
      1.515 -0.2895E+00  0.2397E+02
      1.596 -0.4305E+00  0.2393E+02
      1.677  0.3171E+00  0.2396E+02
      1.758  0.2978E+01  0.2420E+02
      1.839  0.6531E+01  0.2473E+02
      1.920  0.7796E+01  0.2536E+02
      2.001  0.6089E+01  0.2586E+02
      2.082  0.5066E+01  0.2627E+02
      2.163  0.6707E+01  0.2681E+02
      2.245  0.7808E+01  0.2744E+02
      2.326  0.5604E+01  0.2790E+02
      2.407  0.2020E+01  0.2806E+02
      2.488 -0.6355E-01  0.2806E+02
      2.569 -0.4257E+00  0.2802E+02
      2.650 -0.2141E+00  0.2801E+02
      2.731 -0.5875E-01  0.2800E+02
      2.812 -0.1031E-01  0.2800E+02
      2.893 -0.1220E-02  0.2800E+02
      2.974 -0.1127E-03  0.2800E+02
      3.056 -0.2139E-03  0.2800E+02
      3.137 -0.2302E-02  0.2800E+02
      3.218 -0.1748E-01  0.2800E+02
      3.299 -0.8855E-01  0.2799E+02
      3.380 -0.2793E+00  0.2797E+02
      3.461 -0.4279E+00  0.2793E+02
      3.542  0.3240E+00  0.2796E+02
      3.623  0.3042E+01  0.2821E+02
      3.704  0.6784E+01  0.2876E+02
      3.785  0.8201E+01  0.2942E+02
      3.867  0.5673E+01  0.2988E+02
      3.948  0.1723E+01  0.3002E+02
      4.029 -0.4347E+00  0.2999E+02
      4.110  0.3723E+00  0.3002E+02
      4.191  0.3767E+01  0.3032E+02
      4.272  0.7432E+01  0.3093E+02
      4.353  0.7936E+01  0.3157E+02
      4.434  0.4843E+01  0.3196E+02
      4.515  0.1317E+01  0.3207E+02
      4.596 -0.3535E+00  0.3204E+02
      4.678 -0.6592E+00  0.3199E+02
      4.759 -0.5920E+00  0.3194E+02
      4.840  0.2411E+00  0.3196E+02
      4.921  0.2938E+01  0.3220E+02
      5.002  0.6701E+01  0.3274E+02
      5.083  0.8244E+01  0.3341E+02
      5.164  0.5897E+01  0.3389E+02
      5.245  0.2146E+01  0.3406E+02
      5.326 -0.4738E-01  0.3406E+02
      5.407 -0.5174E+00  0.3401E+02
      5.489 -0.5027E+00  0.3397E+02
      5.570 -0.4869E+00  0.3393E+02
      5.651  0.3431E+00  0.3396E+02
      5.732  0.3107E+01  0.3421E+02
      5.813  0.6845E+01  0.3477E+02
      5.894  0.8217E+01  0.3544E+02
      5.975  0.5730E+01  0.3590E+02
      6.056  0.2005E+01  0.3606E+02
      6.137 -0.7759E-01  0.3606E+02
      6.218 -0.4222E+00  0.3602E+02
      6.300 -0.2090E+00  0.3601E+02
      6.381 -0.5671E-01  0.3600E+02
      6.462 -0.9858E-02  0.3600E+02
      6.543 -0.1156E-02  0.3600E+02
      6.624 -0.9364E-04  0.3600E+02
      6.705 -0.5308E-05  0.3600E+02
      6.786 -0.2122E-06  0.3600E+02
      6.867 -0.6013E-08  0.3600E+02
      6.948 -0.1212E-09  0.3600E+02
      7.030 -0.1741E-11  0.3600E+02
      7.111 -0.1643E-13  0.3600E+02
      7.192  0.0000E+00  0.3600E+02
      7.273  0.0000E+00  0.3600E+02
      7.354  0.0000E+00  0.3600E+02
      7.435  0.0000E+00  0.3600E+02
      7.516  0.0000E+00  0.3600E+02
      7.597  0.0000E+00  0.3600E+02
      7.678  0.0000E+00  0.3600E+02
      7.759  0.0000E+00  0.3600E+02
      7.841  0.0000E+00  0.3600E+02
