Automatically generated mesh
       6
Reciprocal lattice
    0.12500000000000    0.12500000000000    0.12500000000000             8
    0.37500000000000    0.12500000000000    0.12500000000000            16
    0.37500000000000    0.37500000000000    0.12500000000000             8
    0.12500000000000    0.12500000000000    0.37500000000000             8
    0.37500000000000    0.12500000000000    0.37500000000000            16
    0.37500000000000    0.37500000000000    0.37500000000000             8
Tetrahedra
        65    0.00260416666667
         4         1         2         3         4
         4         2         3         4         5
         4         3         4         5         6
         8         2         2         3         5
         4         2         3         3         5
         4         3         3         5         6
         4         2         3         5         5
         4         3         5         5         6
         4         3         5         6         6
         8         1         2         2         5
         4         2         3         5         6
         4         1         2         4         5
         8         2         4         5         5
         8         2         5         5         6
         4         1         1         2         4
         4         1         2         2         4
         4         2         2         4         5
         4         1         2         4         4
         4         2         4         4         5
         4         3         3         3         6
         4         3         3         6         6
         4         3         6         6         6
         4         2         2         3         6
         4         2         3         3         6
         4         2         3         6         6
         4         2         2         5         6
         4         2         5         6         6
         8         2         2         2         5
         8         2         2         5         5
         8         2         5         5         5
         4         1         2         3         6
         4         1         2         5         6
         4         1         4         5         6
         4         1         1         2         5
         4         1         1         4         5
         4         1         2         5         5
         4         1         4         5         5
         4         1         4         4         5
         4         1         1         1         4
         4         1         1         4         4
         4         1         4         4         4
         4         4         4         5         6
         4         4         5         5         6
         4         4         5         6         6
        12         5         5         5         6
        10         5         5         6         6
         8         5         6         6         6
        12         4         5         5         5
        10         4         4         5         5
         8         4         4         4         5
         6         6         6         6         6
        12         5         5         5         5
         6         4         4         4         4
         4         1         1         2         3
         4         1         2         2         3
         4         1         2         3         3
        12         2         2         2         3
        10         2         2         3         3
         8         2         3         3         3
        12         1         2         2         2
        10         1         1         2         2
         8         1         1         1         2
         6         3         3         3         3
        12         2         2         2         2
         6         1         1         1         1
