       N       E                     dE             d eps       ncg     rms          rms(c)
DAV:   1    -0.141082075157E+02   -0.14108E+02   -0.15664E-01    20   0.630E+00    0.173E+00
DAV:   2    -0.140649095711E+02    0.43298E-01   -0.65847E-03    20   0.616E-01    0.108E+00
DAV:   3    -0.140348074358E+02    0.30102E-01   -0.17514E-02    20   0.989E-01    0.500E-02
DAV:   4    -0.140348497999E+02   -0.42364E-04   -0.18140E-04    20   0.128E-01    0.969E-03
DAV:   5    -0.140348556315E+02   -0.58316E-05   -0.26692E-06    36   0.129E-02    0.202E-03
DAV:   6    -0.140348541873E+02    0.14443E-05   -0.34496E-08    18   0.156E-03    0.417E-04
DAV:   7    -0.140348541171E+02    0.70131E-07   -0.18870E-09    10   0.495E-04
   1 F= -.14034854E+02 E0= -.13985073E+02  d E =-.149344E+00
       N       E                     dE             d eps       ncg     rms          rms(c)
DAV:   1    -0.140350369051E+02   -0.18272E-03   -0.12268E-02    20   0.803E-01    0.770E-02
DAV:   2    -0.140348314079E+02    0.20550E-03   -0.50148E-04    40   0.154E-01    0.126E-02
DAV:   3    -0.140348279479E+02    0.34600E-05   -0.16642E-05    22   0.228E-02    0.547E-03
DAV:   4    -0.140348285520E+02   -0.60406E-06   -0.25653E-06    40   0.105E-02
   2 F= -.14034829E+02 E0= -.13985081E+02  d E =-.149241E+00
       N       E                     dE             d eps       ncg     rms          rms(c)
DAV:   1    -0.140356698397E+02   -0.84189E-03   -0.61676E-02    20   0.159E+00    0.154E-01
DAV:   2    -0.140348398303E+02    0.83001E-03   -0.19756E-03    36   0.305E-01    0.252E-02
DAV:   3    -0.140348257441E+02    0.14086E-04   -0.68026E-05    24   0.461E-02    0.109E-02
DAV:   4    -0.140348281293E+02   -0.23852E-05   -0.10155E-05    38   0.210E-02    0.420E-03
DAV:   5    -0.140348287061E+02   -0.57682E-06   -0.72886E-07    32   0.714E-03
   3 F= -.14034829E+02 E0= -.13985081E+02  d E =-.149244E+00
