   8   8   0   0
  0.9595760E+01  0.4250008E-09  0.4250008E-09  0.4250008E-09  0.5000000E-15
  1.000000000000000E-004
  CAR 
 bulk MgO relaxation                     
     19.57706978    -37.94718881  301      3.90170932      1.00000000
    -37.947  0.0000E+00  0.0000E+00  0.0000E+00  0.0000E+00
    -37.755  0.0000E+00  0.0000E+00  0.0000E+00  0.0000E+00
    -37.564  0.0000E+00  0.0000E+00  0.0000E+00  0.0000E+00
    -37.372  0.0000E+00  0.0000E+00  0.0000E+00  0.0000E+00
    -37.180  0.0000E+00  0.0000E+00  0.0000E+00  0.0000E+00
    -36.988  0.0000E+00  0.0000E+00  0.0000E+00  0.0000E+00
    -36.797  0.0000E+00  0.0000E+00  0.0000E+00  0.0000E+00
    -36.605  0.0000E+00  0.0000E+00  0.0000E+00  0.0000E+00
    -36.413  0.0000E+00  0.0000E+00  0.0000E+00  0.0000E+00
    -36.221  0.0000E+00  0.0000E+00  0.0000E+00  0.0000E+00
    -36.030  0.0000E+00  0.0000E+00  0.0000E+00  0.0000E+00
    -35.838  0.0000E+00  0.0000E+00  0.0000E+00  0.0000E+00
    -35.646  0.0000E+00  0.0000E+00  0.0000E+00  0.0000E+00
    -35.454  0.2394E-04  0.2404E-04  0.4591E-05  0.4610E-05
    -35.263  0.2721E+00  0.2722E+00  0.5218E-01  0.5220E-01
    -35.071  0.5550E-01  0.5542E-01  0.6283E-01  0.6283E-01
    -34.879  0.1931E-09  0.1918E-09  0.6283E-01  0.6283E-01
    -34.687  0.0000E+00  0.0000E+00  0.6283E-01  0.6283E-01
    -34.496  0.0000E+00  0.0000E+00  0.6283E-01  0.6283E-01
    -34.304  0.0000E+00  0.0000E+00  0.6283E-01  0.6283E-01
    -34.112  0.0000E+00  0.0000E+00  0.6283E-01  0.6283E-01
    -33.920  0.0000E+00  0.0000E+00  0.6283E-01  0.6283E-01
    -33.729  0.0000E+00  0.0000E+00  0.6283E-01  0.6283E-01
    -33.537  0.0000E+00  0.0000E+00  0.6283E-01  0.6283E-01
    -33.345  0.0000E+00  0.0000E+00  0.6283E-01  0.6283E-01
    -33.154  0.0000E+00  0.0000E+00  0.6283E-01  0.6283E-01
    -32.962  0.0000E+00  0.0000E+00  0.6283E-01  0.6283E-01
    -32.770  0.0000E+00  0.0000E+00  0.6283E-01  0.6283E-01
    -32.578  0.0000E+00  0.0000E+00  0.6283E-01  0.6283E-01
    -32.387  0.0000E+00  0.0000E+00  0.6283E-01  0.6283E-01
    -32.195  0.0000E+00  0.0000E+00  0.6283E-01  0.6283E-01
    -32.003  0.0000E+00  0.0000E+00  0.6283E-01  0.6283E-01
    -31.811  0.0000E+00  0.0000E+00  0.6283E-01  0.6283E-01
    -31.620  0.0000E+00  0.0000E+00  0.6283E-01  0.6283E-01
    -31.428  0.0000E+00  0.0000E+00  0.6283E-01  0.6283E-01
    -31.236  0.0000E+00  0.0000E+00  0.6283E-01  0.6283E-01
    -31.044  0.0000E+00  0.0000E+00  0.6283E-01  0.6283E-01
    -30.853  0.0000E+00  0.0000E+00  0.6283E-01  0.6283E-01
    -30.661  0.0000E+00  0.0000E+00  0.6283E-01  0.6283E-01
    -30.469  0.0000E+00  0.0000E+00  0.6283E-01  0.6283E-01
    -30.277  0.0000E+00  0.0000E+00  0.6283E-01  0.6283E-01
    -30.086  0.0000E+00  0.0000E+00  0.6283E-01  0.6283E-01
    -29.894  0.0000E+00  0.0000E+00  0.6283E-01  0.6283E-01
    -29.702  0.0000E+00  0.0000E+00  0.6283E-01  0.6283E-01
    -29.510  0.0000E+00  0.0000E+00  0.6283E-01  0.6283E-01
    -29.319  0.0000E+00  0.0000E+00  0.6283E-01  0.6283E-01
    -29.127  0.0000E+00  0.0000E+00  0.6283E-01  0.6283E-01
    -28.935  0.0000E+00  0.0000E+00  0.6283E-01  0.6283E-01
    -28.743  0.0000E+00  0.0000E+00  0.6283E-01  0.6283E-01
    -28.552  0.0000E+00  0.0000E+00  0.6283E-01  0.6283E-01
    -28.360  0.0000E+00  0.0000E+00  0.6283E-01  0.6283E-01
    -28.168  0.0000E+00  0.0000E+00  0.6283E-01  0.6283E-01
    -27.976  0.0000E+00  0.0000E+00  0.6283E-01  0.6283E-01
    -27.785  0.0000E+00  0.0000E+00  0.6283E-01  0.6283E-01
    -27.593  0.0000E+00  0.0000E+00  0.6283E-01  0.6283E-01
    -27.401  0.0000E+00  0.0000E+00  0.6283E-01  0.6283E-01
    -27.209  0.0000E+00  0.0000E+00  0.6283E-01  0.6283E-01
    -27.018  0.0000E+00  0.0000E+00  0.6283E-01  0.6283E-01
    -26.826  0.0000E+00  0.0000E+00  0.6283E-01  0.6283E-01
    -26.634  0.0000E+00  0.0000E+00  0.6283E-01  0.6283E-01
    -26.442  0.0000E+00  0.0000E+00  0.6283E-01  0.6283E-01
    -26.251  0.0000E+00  0.0000E+00  0.6283E-01  0.6283E-01
    -26.059  0.0000E+00  0.0000E+00  0.6283E-01  0.6283E-01
    -25.867  0.0000E+00  0.0000E+00  0.6283E-01  0.6283E-01
    -25.675  0.0000E+00  0.0000E+00  0.6283E-01  0.6283E-01
    -25.484  0.0000E+00  0.0000E+00  0.6283E-01  0.6283E-01
    -25.292  0.0000E+00  0.0000E+00  0.6283E-01  0.6283E-01
    -25.100  0.0000E+00  0.0000E+00  0.6283E-01  0.6283E-01
    -24.908  0.0000E+00  0.0000E+00  0.6283E-01  0.6283E-01
    -24.717  0.0000E+00  0.0000E+00  0.6283E-01  0.6283E-01
    -24.525  0.0000E+00  0.0000E+00  0.6283E-01  0.6283E-01
    -24.333  0.0000E+00  0.0000E+00  0.6283E-01  0.6283E-01
    -24.141  0.0000E+00  0.0000E+00  0.6283E-01  0.6283E-01
    -23.950  0.0000E+00  0.0000E+00  0.6283E-01  0.6283E-01
    -23.758  0.0000E+00  0.0000E+00  0.6283E-01  0.6283E-01
    -23.566  0.0000E+00  0.0000E+00  0.6283E-01  0.6283E-01
    -23.374  0.0000E+00  0.0000E+00  0.6283E-01  0.6283E-01
    -23.183  0.0000E+00  0.0000E+00  0.6283E-01  0.6283E-01
    -22.991  0.0000E+00  0.0000E+00  0.6283E-01  0.6283E-01
    -22.799  0.0000E+00  0.0000E+00  0.6283E-01  0.6283E-01
    -22.607  0.0000E+00  0.0000E+00  0.6283E-01  0.6283E-01
    -22.416  0.0000E+00  0.0000E+00  0.6283E-01  0.6283E-01
    -22.224  0.0000E+00  0.0000E+00  0.6283E-01  0.6283E-01
    -22.032  0.0000E+00  0.0000E+00  0.6283E-01  0.6283E-01
    -21.840  0.0000E+00  0.0000E+00  0.6283E-01  0.6283E-01
    -21.649  0.0000E+00  0.0000E+00  0.6283E-01  0.6283E-01
    -21.457  0.0000E+00  0.0000E+00  0.6283E-01  0.6283E-01
    -21.265  0.0000E+00  0.0000E+00  0.6283E-01  0.6283E-01
    -21.073  0.0000E+00  0.0000E+00  0.6283E-01  0.6283E-01
    -20.882  0.0000E+00  0.0000E+00  0.6283E-01  0.6283E-01
    -20.690  0.0000E+00  0.0000E+00  0.6283E-01  0.6283E-01
    -20.498  0.0000E+00  0.0000E+00  0.6283E-01  0.6283E-01
    -20.306  0.0000E+00  0.0000E+00  0.6283E-01  0.6283E-01
    -20.115  0.0000E+00  0.0000E+00  0.6283E-01  0.6283E-01
    -19.923  0.0000E+00  0.0000E+00  0.6283E-01  0.6283E-01
    -19.731  0.0000E+00  0.0000E+00  0.6283E-01  0.6283E-01
    -19.539  0.0000E+00  0.0000E+00  0.6283E-01  0.6283E-01
    -19.348  0.0000E+00  0.0000E+00  0.6283E-01  0.6283E-01
    -19.156  0.0000E+00  0.0000E+00  0.6283E-01  0.6283E-01
    -18.964  0.0000E+00  0.0000E+00  0.6283E-01  0.6283E-01
    -18.772  0.0000E+00  0.0000E+00  0.6283E-01  0.6283E-01
    -18.581  0.0000E+00  0.0000E+00  0.6283E-01  0.6283E-01
    -18.389  0.0000E+00  0.0000E+00  0.6283E-01  0.6283E-01
    -18.197  0.0000E+00  0.0000E+00  0.6283E-01  0.6283E-01
    -18.005  0.0000E+00  0.0000E+00  0.6283E-01  0.6283E-01
    -17.814  0.0000E+00  0.0000E+00  0.6283E-01  0.6283E-01
    -17.622  0.0000E+00  0.0000E+00  0.6283E-01  0.6283E-01
    -17.430  0.0000E+00  0.0000E+00  0.6283E-01  0.6283E-01
    -17.238  0.0000E+00  0.0000E+00  0.6283E-01  0.6283E-01
    -17.047  0.0000E+00  0.0000E+00  0.6283E-01  0.6283E-01
    -16.855  0.0000E+00  0.0000E+00  0.6283E-01  0.6283E-01
    -16.663  0.0000E+00  0.0000E+00  0.6283E-01  0.6283E-01
    -16.471  0.0000E+00  0.0000E+00  0.6283E-01  0.6283E-01
    -16.280  0.0000E+00  0.0000E+00  0.6283E-01  0.6283E-01
    -16.088  0.0000E+00  0.0000E+00  0.6283E-01  0.6283E-01
    -15.896  0.0000E+00  0.0000E+00  0.6283E-01  0.6283E-01
    -15.704  0.0000E+00  0.0000E+00  0.6283E-01  0.6283E-01
    -15.513  0.0000E+00  0.0000E+00  0.6283E-01  0.6283E-01
    -15.321  0.0000E+00  0.0000E+00  0.6283E-01  0.6283E-01
    -15.129  0.0000E+00  0.0000E+00  0.6283E-01  0.6283E-01
    -14.937  0.0000E+00  0.0000E+00  0.6283E-01  0.6283E-01
    -14.746  0.0000E+00  0.0000E+00  0.6283E-01  0.6283E-01
    -14.554  0.0000E+00  0.0000E+00  0.6283E-01  0.6283E-01
    -14.362  0.0000E+00  0.0000E+00  0.6283E-01  0.6283E-01
    -14.170  0.0000E+00  0.0000E+00  0.6283E-01  0.6283E-01
    -13.979  0.0000E+00  0.0000E+00  0.6283E-01  0.6283E-01
    -13.787  0.0000E+00  0.0000E+00  0.6283E-01  0.6283E-01
    -13.595  0.0000E+00  0.0000E+00  0.6283E-01  0.6283E-01
    -13.404  0.0000E+00  0.0000E+00  0.6283E-01  0.6283E-01
    -13.212  0.0000E+00  0.0000E+00  0.6283E-01  0.6283E-01
    -13.020  0.0000E+00  0.0000E+00  0.6283E-01  0.6283E-01
    -12.828  0.2035E-11  0.2139E-11  0.6283E-01  0.6283E-01
    -12.637  0.4446E-02  0.4497E-02  0.6368E-01  0.6369E-01
    -12.445  0.2286E-01  0.2281E-01  0.6806E-01  0.6806E-01
    -12.253  0.1225E-06  0.1182E-06  0.6806E-01  0.6806E-01
    -12.061  0.1380E-11  0.1456E-11  0.6806E-01  0.6806E-01
    -11.870  0.9331E-02  0.9456E-02  0.6985E-01  0.6988E-01
    -11.678  0.7258E-01  0.7246E-01  0.8377E-01  0.8377E-01
    -11.486  0.1012E-05  0.9772E-06  0.8377E-01  0.8377E-01
    -11.294  0.0000E+00  0.0000E+00  0.8377E-01  0.8377E-01
    -11.103  0.0000E+00  0.0000E+00  0.8377E-01  0.8377E-01
    -10.911  0.0000E+00  0.0000E+00  0.8377E-01  0.8377E-01
    -10.719  0.0000E+00  0.0000E+00  0.8377E-01  0.8377E-01
    -10.527  0.0000E+00  0.0000E+00  0.8377E-01  0.8377E-01
    -10.336  0.0000E+00  0.0000E+00  0.8377E-01  0.8377E-01
    -10.144  0.0000E+00  0.0000E+00  0.8377E-01  0.8377E-01
     -9.952  0.0000E+00  0.0000E+00  0.8377E-01  0.8377E-01
     -9.760  0.0000E+00  0.0000E+00  0.8377E-01  0.8377E-01
     -9.569  0.0000E+00  0.0000E+00  0.8377E-01  0.8377E-01
     -9.377  0.0000E+00  0.0000E+00  0.8377E-01  0.8377E-01
     -9.185  0.0000E+00  0.0000E+00  0.8377E-01  0.8377E-01
     -8.993  0.0000E+00  0.0000E+00  0.8377E-01  0.8377E-01
     -8.802  0.0000E+00  0.0000E+00  0.8377E-01  0.8377E-01
     -8.610  0.0000E+00  0.0000E+00  0.8377E-01  0.8377E-01
     -8.418  0.0000E+00  0.0000E+00  0.8377E-01  0.8377E-01
     -8.226  0.0000E+00  0.0000E+00  0.8377E-01  0.8377E-01
     -8.035  0.0000E+00  0.0000E+00  0.8377E-01  0.8377E-01
     -7.843  0.0000E+00  0.0000E+00  0.8377E-01  0.8377E-01
     -7.651  0.0000E+00  0.0000E+00  0.8377E-01  0.8377E-01
     -7.459  0.0000E+00  0.0000E+00  0.8377E-01  0.8377E-01
     -7.268  0.0000E+00  0.0000E+00  0.8377E-01  0.8377E-01
     -7.076  0.0000E+00  0.0000E+00  0.8377E-01  0.8377E-01
     -6.884  0.0000E+00  0.0000E+00  0.8377E-01  0.8377E-01
     -6.692  0.0000E+00  0.0000E+00  0.8377E-01  0.8377E-01
     -6.501  0.0000E+00  0.0000E+00  0.8377E-01  0.8377E-01
     -6.309  0.0000E+00  0.0000E+00  0.8377E-01  0.8377E-01
     -6.117  0.0000E+00  0.0000E+00  0.8377E-01  0.8377E-01
     -5.925  0.0000E+00  0.0000E+00  0.8377E-01  0.8377E-01
     -5.734  0.0000E+00  0.0000E+00  0.8377E-01  0.8377E-01
     -5.542  0.0000E+00  0.0000E+00  0.8377E-01  0.8377E-01
     -5.350  0.0000E+00  0.0000E+00  0.8377E-01  0.8377E-01
     -5.158  0.0000E+00  0.0000E+00  0.8377E-01  0.8377E-01
     -4.967  0.0000E+00  0.0000E+00  0.8377E-01  0.8377E-01
     -4.775  0.0000E+00  0.0000E+00  0.8377E-01  0.8377E-01
     -4.583  0.0000E+00  0.0000E+00  0.8377E-01  0.8377E-01
     -4.391  0.0000E+00  0.0000E+00  0.8377E-01  0.8377E-01
     -4.200  0.0000E+00  0.0000E+00  0.8377E-01  0.8377E-01
     -4.008  0.0000E+00  0.0000E+00  0.8377E-01  0.8377E-01
     -3.816  0.0000E+00  0.0000E+00  0.8377E-01  0.8377E-01
     -3.624  0.0000E+00  0.0000E+00  0.8377E-01  0.8377E-01
     -3.433  0.0000E+00  0.0000E+00  0.8377E-01  0.8377E-01
     -3.241  0.0000E+00  0.0000E+00  0.8377E-01  0.8377E-01
     -3.049  0.0000E+00  0.0000E+00  0.8377E-01  0.8377E-01
     -2.857  0.0000E+00  0.0000E+00  0.8377E-01  0.8377E-01
     -2.666  0.0000E+00  0.0000E+00  0.8377E-01  0.8377E-01
     -2.474  0.0000E+00  0.0000E+00  0.8377E-01  0.8377E-01
     -2.282  0.0000E+00  0.0000E+00  0.8377E-01  0.8377E-01
     -2.090  0.0000E+00  0.0000E+00  0.8377E-01  0.8377E-01
     -1.899  0.0000E+00  0.0000E+00  0.8377E-01  0.8377E-01
     -1.707  0.0000E+00  0.0000E+00  0.8377E-01  0.8377E-01
     -1.515  0.0000E+00  0.0000E+00  0.8377E-01  0.8377E-01
     -1.323  0.0000E+00  0.0000E+00  0.8377E-01  0.8377E-01
     -1.132  0.0000E+00  0.0000E+00  0.8377E-01  0.8377E-01
     -0.940  0.0000E+00  0.0000E+00  0.8377E-01  0.8377E-01
     -0.748  0.0000E+00  0.0000E+00  0.8377E-01  0.8377E-01
     -0.556  0.0000E+00  0.0000E+00  0.8377E-01  0.8377E-01
     -0.365  0.0000E+00  0.0000E+00  0.8377E-01  0.8377E-01
     -0.173  0.0000E+00  0.0000E+00  0.8377E-01  0.8377E-01
      0.019  0.8085E-08  0.8402E-08  0.8377E-01  0.8377E-01
      0.211  0.4814E-01  0.4837E-01  0.9300E-01  0.9304E-01
      0.402  0.3377E-01  0.3354E-01  0.9948E-01  0.9948E-01
      0.594  0.6761E-09  0.6486E-09  0.9948E-01  0.9948E-01
      0.786  0.0000E+00  0.0000E+00  0.9948E-01  0.9948E-01
      0.978  0.0000E+00  0.0000E+00  0.9948E-01  0.9948E-01
      1.169  0.2236E-05  0.2299E-05  0.9948E-01  0.9948E-01
      1.361  0.2596E-01  0.2598E-01  0.1045E+00  0.1045E+00
      1.553  0.1339E-02  0.1320E-02  0.1047E+00  0.1047E+00
      1.745  0.0000E+00  0.0000E+00  0.1047E+00  0.1047E+00
      1.936  0.4040E-04  0.4157E-04  0.1047E+00  0.1047E+00
      2.128  0.8051E-01  0.8054E-01  0.1202E+00  0.1202E+00
      2.320  0.1362E-02  0.1335E-02  0.1204E+00  0.1204E+00
      2.512  0.0000E+00  0.0000E+00  0.1204E+00  0.1204E+00
      2.703  0.5513E-10  0.5810E-10  0.1204E+00  0.1204E+00
      2.895  0.2143E-01  0.2166E-01  0.1245E+00  0.1246E+00
      3.087  0.6048E-01  0.6026E-01  0.1361E+00  0.1361E+00
      3.279  0.7001E-07  0.6712E-07  0.1361E+00  0.1361E+00
      3.470  0.1111E-03  0.1142E-03  0.1361E+00  0.1361E+00
      3.662  0.5420E-01  0.5421E-01  0.1465E+00  0.1465E+00
      3.854  0.2935E-03  0.2863E-03  0.1466E+00  0.1466E+00
      4.046  0.0000E+00  0.0000E+00  0.1466E+00  0.1466E+00
      4.237  0.0000E+00  0.0000E+00  0.1466E+00  0.1466E+00
      4.429  0.0000E+00  0.0000E+00  0.1466E+00  0.1466E+00
      4.621  0.0000E+00  0.0000E+00  0.1466E+00  0.1466E+00
      4.813  0.0000E+00  0.0000E+00  0.1466E+00  0.1466E+00
      5.004  0.0000E+00  0.0000E+00  0.1466E+00  0.1466E+00
      5.196  0.0000E+00  0.0000E+00  0.1466E+00  0.1466E+00
      5.388  0.0000E+00  0.0000E+00  0.1466E+00  0.1466E+00
      5.580  0.0000E+00  0.0000E+00  0.1466E+00  0.1466E+00
      5.771  0.0000E+00  0.0000E+00  0.1466E+00  0.1466E+00
      5.963  0.0000E+00  0.0000E+00  0.1466E+00  0.1466E+00
      6.155  0.0000E+00  0.0000E+00  0.1466E+00  0.1466E+00
      6.346  0.0000E+00  0.0000E+00  0.1466E+00  0.1466E+00
      6.538  0.0000E+00  0.0000E+00  0.1466E+00  0.1466E+00
      6.730  0.0000E+00  0.0000E+00  0.1466E+00  0.1466E+00
      6.922  0.0000E+00  0.0000E+00  0.1466E+00  0.1466E+00
      7.113  0.0000E+00  0.0000E+00  0.1466E+00  0.1466E+00
      7.305  0.0000E+00  0.0000E+00  0.1466E+00  0.1466E+00
      7.497  0.0000E+00  0.0000E+00  0.1466E+00  0.1466E+00
      7.689  0.0000E+00  0.0000E+00  0.1466E+00  0.1466E+00
      7.880  0.0000E+00  0.0000E+00  0.1466E+00  0.1466E+00
      8.072  0.0000E+00  0.0000E+00  0.1466E+00  0.1466E+00
      8.264  0.0000E+00  0.0000E+00  0.1466E+00  0.1466E+00
      8.456  0.0000E+00  0.0000E+00  0.1466E+00  0.1466E+00
      8.647  0.0000E+00  0.0000E+00  0.1466E+00  0.1466E+00
      8.839  0.0000E+00  0.0000E+00  0.1466E+00  0.1466E+00
      9.031  0.0000E+00  0.0000E+00  0.1466E+00  0.1466E+00
      9.223  0.0000E+00  0.0000E+00  0.1466E+00  0.1466E+00
      9.414  0.0000E+00  0.0000E+00  0.1466E+00  0.1466E+00
      9.606  0.0000E+00  0.0000E+00  0.1466E+00  0.1466E+00
      9.798  0.0000E+00  0.0000E+00  0.1466E+00  0.1466E+00
      9.990  0.0000E+00  0.0000E+00  0.1466E+00  0.1466E+00
     10.181  0.0000E+00  0.0000E+00  0.1466E+00  0.1466E+00
     10.373  0.0000E+00  0.0000E+00  0.1466E+00  0.1466E+00
     10.565  0.6015E-11  0.6199E-11  0.1466E+00  0.1466E+00
     10.757  0.5663E-02  0.5700E-02  0.1477E+00  0.1477E+00
     10.948  0.2164E-01  0.2160E-01  0.1518E+00  0.1518E+00
     11.140  0.5552E-07  0.5427E-07  0.1518E+00  0.1518E+00
     11.332  0.0000E+00  0.0000E+00  0.1518E+00  0.1518E+00
     11.524  0.0000E+00  0.0000E+00  0.1518E+00  0.1518E+00
     11.715  0.0000E+00  0.0000E+00  0.1518E+00  0.1518E+00
     11.907  0.0000E+00  0.0000E+00  0.1518E+00  0.1518E+00
     12.099  0.0000E+00  0.0000E+00  0.1518E+00  0.1518E+00
     12.291  0.0000E+00  0.0000E+00  0.1518E+00  0.1518E+00
     12.482  0.0000E+00  0.0000E+00  0.1518E+00  0.1518E+00
     12.674  0.0000E+00  0.0000E+00  0.1518E+00  0.1518E+00
     12.866  0.0000E+00  0.0000E+00  0.1518E+00  0.1518E+00
     13.058  0.0000E+00  0.0000E+00  0.1518E+00  0.1518E+00
     13.249  0.1496E-08  0.1542E-08  0.1518E+00  0.1518E+00
     13.441  0.3823E-01  0.3841E-01  0.1592E+00  0.1592E+00
     13.633  0.4368E-01  0.4350E-01  0.1675E+00  0.1675E+00
     13.825  0.3807E-08  0.3695E-08  0.1675E+00  0.1675E+00
     14.016  0.0000E+00  0.0000E+00  0.1675E+00  0.1675E+00
     14.208  0.0000E+00  0.0000E+00  0.1675E+00  0.1675E+00
     14.400  0.0000E+00  0.0000E+00  0.1675E+00  0.1675E+00
     14.592  0.0000E+00  0.0000E+00  0.1675E+00  0.1675E+00
     14.783  0.0000E+00  0.0000E+00  0.1675E+00  0.1675E+00
     14.975  0.4547E-17  0.4547E-17  0.1675E+00  0.1675E+00
     15.167  0.1553E-03  0.1578E-03  0.1676E+00  0.1676E+00
     15.359  0.8129E-01  0.8129E-01  0.1832E+00  0.1832E+00
     15.550  0.4693E-03  0.4625E-03  0.1832E+00  0.1832E+00
     15.742  0.0000E+00  0.0000E+00  0.1832E+00  0.1832E+00
     15.934  0.0000E+00  0.0000E+00  0.1832E+00  0.1832E+00
     16.126  0.5535E-10  0.5762E-10  0.1832E+00  0.1832E+00
     16.317  0.8827E-02  0.8892E-02  0.1849E+00  0.1850E+00
     16.509  0.1848E-01  0.1841E-01  0.1885E+00  0.1885E+00
     16.701  0.9384E-08  0.9068E-08  0.1885E+00  0.1885E+00
     16.893  0.6643E-03  0.6634E-03  0.1886E+00  0.1886E+00
     17.084  0.2663E-01  0.2663E-01  0.1937E+00  0.1937E+00
     17.276  0.7601E-05  0.7617E-05  0.1937E+00  0.1937E+00
     17.468  0.0000E+00  0.0000E+00  0.1937E+00  0.1937E+00
     17.660  0.0000E+00  0.0000E+00  0.1937E+00  0.1937E+00
     17.851  0.0000E+00  0.0000E+00  0.1937E+00  0.1937E+00
     18.043  0.0000E+00  0.0000E+00  0.1937E+00  0.1937E+00
     18.235  0.0000E+00  0.0000E+00  0.1937E+00  0.1937E+00
     18.427  0.0000E+00  0.0000E+00  0.1937E+00  0.1937E+00
     18.618  0.0000E+00  0.0000E+00  0.1937E+00  0.1937E+00
     18.810  0.0000E+00  0.0000E+00  0.1937E+00  0.1937E+00
     19.002  0.0000E+00  0.0000E+00  0.1937E+00  0.1937E+00
     19.194  0.0000E+00  0.0000E+00  0.1937E+00  0.1937E+00
     19.385  0.0000E+00  0.0000E+00  0.1937E+00  0.1937E+00
     19.577  0.0000E+00  0.0000E+00  0.1937E+00  0.1937E+00
