       N       E                     dE             d eps       ncg     rms          rms(c)
DAV:   1     0.373924282046E+01    0.37392E+01   -0.24661E+03    16   0.538E+02
DAV:   2    -0.877415287316E+01   -0.12513E+02   -0.12521E+02    16   0.779E+01
DAV:   3    -0.892646959277E+01   -0.15232E+00   -0.10086E+00    32   0.985E+00
DAV:   4    -0.892656518064E+01   -0.95588E-04   -0.95543E-04    16   0.160E-01
DAV:   5    -0.892656575404E+01   -0.57340E-06   -0.57273E-06    32   0.140E-02    0.211E+00
DAV:   6    -0.875558775568E+01    0.17098E+00   -0.23515E-01    16   0.263E+00    0.118E+00
DAV:   7    -0.870562871169E+01    0.49959E-01   -0.18413E-01    16   0.244E+00    0.293E-01
DAV:   8    -0.870559471690E+01    0.33995E-04   -0.77536E-03    16   0.780E-01    0.221E-02
DAV:   9    -0.870559155778E+01    0.31591E-05   -0.19490E-04    32   0.112E-01
   1 F= -.87055916E+01 E0= -.86780839E+01  d E =-.870559E+01
