   7   7   0   0
  0.2544720E+02  0.5626600E-09  0.5626600E-09  0.5626600E-09  0.5000000E-15
  1.000000000000000E-004
  CAR 
 unknown system                          
     10.74825395    -14.51075841  301      2.74817799      1.00000000
    -14.511  0.0000E+00  0.0000E+00  0.0000E+00  0.0000E+00
    -14.427  0.0000E+00  0.0000E+00  0.0000E+00  0.0000E+00
    -14.342  0.0000E+00  0.0000E+00  0.0000E+00  0.0000E+00
    -14.258  0.0000E+00  0.0000E+00  0.0000E+00  0.0000E+00
    -14.174 -0.2574E-30 -0.2557E-30 -0.2167E-31 -0.2153E-31
    -14.090 -0.2936E-27 -0.2918E-27 -0.2474E-28 -0.2459E-28
    -14.006 -0.1846E-24 -0.1835E-24 -0.1557E-25 -0.1548E-25
    -13.921 -0.8143E-22 -0.8098E-22 -0.6871E-23 -0.6834E-23
    -13.837 -0.2520E-19 -0.2507E-19 -0.2128E-20 -0.2118E-20
    -13.753 -0.5470E-17 -0.5444E-17 -0.4627E-18 -0.4604E-18
    -13.669 -0.8066E-15 -0.8029E-15 -0.6837E-16 -0.6806E-16
    -13.585 -0.8603E-13 -0.8568E-13 -0.7312E-14 -0.7282E-14
    -13.500 -0.6408E-11 -0.6384E-11 -0.5468E-12 -0.5448E-12
    -13.416 -0.3344E-09 -0.3332E-09 -0.2870E-10 -0.2860E-10
    -13.332 -0.1221E-07 -0.1217E-07 -0.1057E-08 -0.1053E-08
    -13.248 -0.3115E-06 -0.3106E-06 -0.2728E-07 -0.2721E-07
    -13.164 -0.5541E-05 -0.5527E-05 -0.4938E-06 -0.4926E-06
    -13.079 -0.6840E-04 -0.6825E-04 -0.6253E-05 -0.6239E-05
    -12.995 -0.5804E-03 -0.5794E-03 -0.5512E-04 -0.5502E-04
    -12.911 -0.3320E-02 -0.3316E-02 -0.3347E-03 -0.3342E-03
    -12.827 -0.1220E-01 -0.1219E-01 -0.1362E-02 -0.1361E-02
    -12.743 -0.2469E-01 -0.2468E-01 -0.3441E-02 -0.3439E-02
    -12.658 -0.3834E-02 -0.3892E-02 -0.3764E-02 -0.3767E-02
    -12.574  0.1263E+00  0.1261E+00  0.6869E-02  0.6850E-02
    -12.490  0.3745E+00  0.3742E+00  0.3840E-01  0.3836E-01
    -12.406  0.5672E+00  0.5672E+00  0.8616E-01  0.8611E-01
    -12.322  0.5079E+00  0.5081E+00  0.1289E+00  0.1289E+00
    -12.237  0.2574E+00  0.2577E+00  0.1506E+00  0.1506E+00
    -12.153  0.4693E-01  0.4706E-01  0.1545E+00  0.1545E+00
    -12.069 -0.2495E-01 -0.2493E-01  0.1524E+00  0.1524E+00
    -11.985 -0.2046E-01 -0.2047E-01  0.1507E+00  0.1507E+00
    -11.901 -0.6970E-02 -0.6979E-02  0.1501E+00  0.1501E+00
    -11.816 -0.1421E-02 -0.1423E-02  0.1500E+00  0.1500E+00
    -11.732 -0.1883E-03 -0.1887E-03  0.1500E+00  0.1500E+00
    -11.648 -0.1678E-04 -0.1682E-04  0.1500E+00  0.1500E+00
    -11.564 -0.1021E-05 -0.1024E-05  0.1500E+00  0.1500E+00
    -11.480 -0.4284E-07 -0.4298E-07  0.1500E+00  0.1500E+00
    -11.395 -0.1246E-08 -0.1250E-08  0.1500E+00  0.1500E+00
    -11.311 -0.2519E-10 -0.2529E-10  0.1500E+00  0.1500E+00
    -11.227 -0.3553E-12 -0.3567E-12  0.1500E+00  0.1500E+00
    -11.143 -0.3560E-14 -0.3587E-14  0.1500E+00  0.1500E+00
    -11.059  0.0000E+00  0.0000E+00  0.1500E+00  0.1500E+00
    -10.974  0.0000E+00  0.0000E+00  0.1500E+00  0.1500E+00
    -10.890  0.0000E+00  0.0000E+00  0.1500E+00  0.1500E+00
    -10.806  0.0000E+00  0.0000E+00  0.1500E+00  0.1500E+00
    -10.722 -0.1467E-29 -0.1465E-29  0.1500E+00  0.1500E+00
    -10.638 -0.1170E-26 -0.1168E-26  0.1500E+00  0.1500E+00
    -10.554 -0.6528E-24 -0.6521E-24  0.1500E+00  0.1500E+00
    -10.469 -0.2548E-21 -0.2545E-21  0.1500E+00  0.1500E+00
    -10.385 -0.6947E-19 -0.6941E-19  0.1500E+00  0.1500E+00
    -10.301 -0.1323E-16 -0.1322E-16  0.1500E+00  0.1500E+00
    -10.217 -0.1705E-14 -0.1703E-14  0.1500E+00  0.1500E+00
    -10.133 -0.1570E-12 -0.1569E-12  0.1500E+00  0.1500E+00
    -10.048 -0.1005E-10 -0.1005E-10  0.1500E+00  0.1500E+00
     -9.964 -0.4463E-09 -0.4460E-09  0.1500E+00  0.1500E+00
     -9.880 -0.1369E-07 -0.1368E-07  0.1500E+00  0.1500E+00
     -9.796 -0.2888E-06 -0.2886E-06  0.1500E+00  0.1500E+00
     -9.712 -0.4154E-05 -0.4152E-05  0.1500E+00  0.1500E+00
     -9.627 -0.4022E-04 -0.4021E-04  0.1500E+00  0.1500E+00
     -9.543 -0.2557E-03 -0.2557E-03  0.1500E+00  0.1500E+00
     -9.459 -0.1012E-02 -0.1012E-02  0.1499E+00  0.1499E+00
     -9.375 -0.2106E-02 -0.2106E-02  0.1497E+00  0.1497E+00
     -9.291 -0.1218E-03 -0.1228E-03  0.1497E+00  0.1497E+00
     -9.206  0.1138E-01  0.1138E-01  0.1507E+00  0.1507E+00
     -9.122  0.3082E-01  0.3082E-01  0.1533E+00  0.1533E+00
     -9.038  0.4129E-01  0.4129E-01  0.1567E+00  0.1567E+00
     -8.954  0.3089E-01  0.3090E-01  0.1593E+00  0.1593E+00
     -8.870  0.1145E-01  0.1145E-01  0.1603E+00  0.1603E+00
     -8.785 -0.9944E-04 -0.9838E-04  0.1603E+00  0.1603E+00
     -8.701 -0.2108E-02 -0.2108E-02  0.1601E+00  0.1601E+00
     -8.617 -0.1016E-02 -0.1016E-02  0.1600E+00  0.1600E+00
     -8.533 -0.2584E-03 -0.2585E-03  0.1600E+00  0.1600E+00
     -8.449 -0.5498E-04 -0.5499E-04  0.1600E+00  0.1600E+00
     -8.364 -0.1316E-03 -0.1316E-03  0.1600E+00  0.1600E+00
     -8.280 -0.7322E-03 -0.7320E-03  0.1599E+00  0.1599E+00
     -8.196 -0.2561E-02 -0.2561E-02  0.1597E+00  0.1597E+00
     -8.112 -0.4314E-02 -0.4314E-02  0.1593E+00  0.1593E+00
     -8.028  0.2803E-02  0.2800E-02  0.1596E+00  0.1596E+00
     -7.943  0.3036E-01  0.3035E-01  0.1621E+00  0.1621E+00
     -7.859  0.6765E-01  0.6765E-01  0.1678E+00  0.1678E+00
     -7.775  0.7989E-01  0.7989E-01  0.1746E+00  0.1746E+00
     -7.691  0.5937E-01  0.5938E-01  0.1796E+00  0.1796E+00
     -7.607  0.4008E-01  0.4008E-01  0.1829E+00  0.1829E+00
     -7.522  0.3771E-01  0.3771E-01  0.1861E+00  0.1861E+00
     -7.438  0.3237E-01  0.3237E-01  0.1888E+00  0.1888E+00
     -7.354  0.1590E-01  0.1590E-01  0.1902E+00  0.1902E+00
     -7.270  0.2005E-02  0.2007E-02  0.1903E+00  0.1903E+00
     -7.186 -0.2151E-02 -0.2151E-02  0.1902E+00  0.1902E+00
     -7.101 -0.1408E-02 -0.1408E-02  0.1900E+00  0.1900E+00
     -7.017 -0.4249E-03 -0.4250E-03  0.1900E+00  0.1900E+00
     -6.933 -0.7736E-04 -0.7738E-04  0.1900E+00  0.1900E+00
     -6.849 -0.9136E-05 -0.9139E-05  0.1900E+00  0.1900E+00
     -6.765 -0.7217E-06 -0.7219E-06  0.1900E+00  0.1900E+00
     -6.680 -0.3874E-07 -0.3876E-07  0.1900E+00  0.1900E+00
     -6.596 -0.1427E-08 -0.1428E-08  0.1900E+00  0.1900E+00
     -6.512 -0.3625E-10 -0.3627E-10  0.1900E+00  0.1900E+00
     -6.428 -0.6382E-12 -0.6385E-12  0.1900E+00  0.1900E+00
     -6.344 -0.7780E-14 -0.7780E-14  0.1900E+00  0.1900E+00
     -6.259 -0.7912E-16 -0.7912E-16  0.1900E+00  0.1900E+00
     -6.175  0.0000E+00  0.0000E+00  0.1900E+00  0.1900E+00
     -6.091  0.0000E+00  0.0000E+00  0.1900E+00  0.1900E+00
     -6.007  0.0000E+00  0.0000E+00  0.1900E+00  0.1900E+00
     -5.923  0.0000E+00  0.0000E+00  0.1900E+00  0.1900E+00
     -5.838  0.0000E+00  0.0000E+00  0.1900E+00  0.1900E+00
     -5.754  0.0000E+00  0.0000E+00  0.1900E+00  0.1900E+00
     -5.670  0.0000E+00  0.0000E+00  0.1900E+00  0.1900E+00
     -5.586  0.0000E+00  0.0000E+00  0.1900E+00  0.1900E+00
     -5.502  0.0000E+00  0.0000E+00  0.1900E+00  0.1900E+00
     -5.418  0.0000E+00  0.0000E+00  0.1900E+00  0.1900E+00
     -5.333 -0.2572E-30 -0.2566E-30  0.1900E+00  0.1900E+00
     -5.249 -0.2326E-27 -0.2321E-27  0.1900E+00  0.1900E+00
     -5.165 -0.1472E-24 -0.1469E-24  0.1900E+00  0.1900E+00
     -5.081 -0.6516E-22 -0.6504E-22  0.1900E+00  0.1900E+00
     -4.997 -0.2016E-19 -0.2012E-19  0.1900E+00  0.1900E+00
     -4.912 -0.4355E-17 -0.4348E-17  0.1900E+00  0.1900E+00
     -4.828 -0.6435E-15 -0.6425E-15  0.1900E+00  0.1900E+00
     -4.744 -0.6672E-13 -0.6663E-13  0.1900E+00  0.1900E+00
     -4.660 -0.4857E-11 -0.4851E-11  0.1900E+00  0.1900E+00
     -4.576 -0.2454E-09 -0.2451E-09  0.1900E+00  0.1900E+00
     -4.491 -0.8576E-08 -0.8567E-08  0.1900E+00  0.1900E+00
     -4.407 -0.2065E-06 -0.2063E-06  0.1900E+00  0.1900E+00
     -4.323 -0.3402E-05 -0.3399E-05  0.1900E+00  0.1900E+00
     -4.239 -0.3793E-04 -0.3791E-04  0.1900E+00  0.1900E+00
     -4.155 -0.2807E-03 -0.2806E-03  0.1900E+00  0.1900E+00
     -4.070 -0.1325E-02 -0.1325E-02  0.1899E+00  0.1899E+00
     -3.986 -0.3588E-02 -0.3587E-02  0.1896E+00  0.1896E+00
     -3.902 -0.3166E-02 -0.3168E-02  0.1893E+00  0.1893E+00
     -3.818  0.1201E-01  0.1200E-01  0.1903E+00  0.1903E+00
     -3.734  0.4785E-01  0.4784E-01  0.1943E+00  0.1943E+00
     -3.649  0.7969E-01  0.7969E-01  0.2010E+00  0.2010E+00
     -3.565  0.7324E-01  0.7325E-01  0.2072E+00  0.2072E+00
     -3.481  0.3601E-01  0.3602E-01  0.2102E+00  0.2102E+00
     -3.397  0.5248E-02  0.5254E-02  0.2107E+00  0.2107E+00
     -3.313 -0.4160E-02 -0.4160E-02  0.2103E+00  0.2103E+00
     -3.228 -0.2876E-02 -0.2876E-02  0.2101E+00  0.2101E+00
     -3.144 -0.8844E-03 -0.8849E-03  0.2100E+00  0.2100E+00
     -3.060 -0.1632E-03 -0.1633E-03  0.2100E+00  0.2100E+00
     -2.976 -0.1957E-04 -0.1958E-04  0.2100E+00  0.2100E+00
     -2.892 -0.2765E-05 -0.2765E-05  0.2100E+00  0.2100E+00
     -2.807 -0.1426E-04 -0.1425E-04  0.2100E+00  0.2100E+00
     -2.723 -0.1109E-03 -0.1108E-03  0.2100E+00  0.2100E+00
     -2.639 -0.5568E-03 -0.5566E-03  0.2099E+00  0.2099E+00
     -2.555 -0.1640E-02 -0.1640E-02  0.2098E+00  0.2098E+00
     -2.471 -0.1871E-02 -0.1871E-02  0.2096E+00  0.2096E+00
     -2.386  0.4376E-02  0.4372E-02  0.2100E+00  0.2100E+00
     -2.302  0.2128E-01  0.2127E-01  0.2118E+00  0.2118E+00
     -2.218  0.3862E-01  0.3862E-01  0.2151E+00  0.2151E+00
     -2.134  0.3826E-01  0.3826E-01  0.2183E+00  0.2183E+00
     -2.050  0.2061E-01  0.2062E-01  0.2200E+00  0.2200E+00
     -1.965  0.3995E-02  0.3998E-02  0.2204E+00  0.2204E+00
     -1.881 -0.1926E-02 -0.1926E-02  0.2202E+00  0.2202E+00
     -1.797 -0.1600E-02 -0.1600E-02  0.2201E+00  0.2201E+00
     -1.713 -0.5320E-03 -0.5322E-03  0.2200E+00  0.2200E+00
     -1.629 -0.1043E-03 -0.1043E-03  0.2200E+00  0.2200E+00
     -1.544 -0.1316E-04 -0.1316E-04  0.2200E+00  0.2200E+00
     -1.460 -0.1135E-05 -0.1136E-05  0.2200E+00  0.2200E+00
     -1.376 -0.6707E-06 -0.6701E-06  0.2200E+00  0.2200E+00
     -1.292 -0.8686E-05 -0.8679E-05  0.2200E+00  0.2200E+00
     -1.208 -0.8355E-04 -0.8350E-04  0.2200E+00  0.2200E+00
     -1.123 -0.5284E-03 -0.5281E-03  0.2199E+00  0.2199E+00
     -1.039 -0.2086E-02 -0.2085E-02  0.2198E+00  0.2198E+00
     -0.955 -0.4392E-02 -0.4391E-02  0.2194E+00  0.2194E+00
     -0.871 -0.7673E-03 -0.7711E-03  0.2193E+00  0.2193E+00
     -0.787  0.2149E-01  0.2148E-01  0.2211E+00  0.2211E+00
     -0.702  0.6094E-01  0.6092E-01  0.2263E+00  0.2263E+00
     -0.618  0.8964E-01  0.8964E-01  0.2338E+00  0.2338E+00
     -0.534  0.8662E-01  0.8663E-01  0.2411E+00  0.2411E+00
     -0.450  0.6270E-01  0.6271E-01  0.2464E+00  0.2464E+00
     -0.366  0.3511E-01  0.3512E-01  0.2494E+00  0.2494E+00
     -0.282  0.1229E-01  0.1230E-01  0.2504E+00  0.2504E+00
     -0.197 -0.8727E-04 -0.8585E-04  0.2504E+00  0.2504E+00
     -0.113 -0.2633E-02 -0.2634E-02  0.2502E+00  0.2502E+00
     -0.029 -0.1457E-02 -0.1458E-02  0.2500E+00  0.2500E+00
      0.055 -0.6480E-03 -0.6480E-03  0.2500E+00  0.2500E+00
      0.139 -0.1097E-02 -0.1097E-02  0.2499E+00  0.2499E+00
      0.224 -0.2448E-02 -0.2447E-02  0.2497E+00  0.2497E+00
      0.308 -0.1627E-02 -0.1629E-02  0.2495E+00  0.2495E+00
      0.392  0.8500E-02  0.8494E-02  0.2503E+00  0.2503E+00
      0.476  0.3139E-01  0.3138E-01  0.2529E+00  0.2529E+00
      0.560  0.5655E-01  0.5654E-01  0.2577E+00  0.2577E+00
      0.645  0.6621E-01  0.6621E-01  0.2632E+00  0.2632E+00
      0.729  0.5289E-01  0.5289E-01  0.2677E+00  0.2677E+00
      0.813  0.2643E-01  0.2644E-01  0.2699E+00  0.2699E+00
      0.897  0.3902E-02  0.3907E-02  0.2702E+00  0.2702E+00
      0.981 -0.6372E-02 -0.6371E-02  0.2697E+00  0.2697E+00
      1.066 -0.2813E-02 -0.2817E-02  0.2695E+00  0.2695E+00
      1.150  0.2087E-01  0.2086E-01  0.2712E+00  0.2712E+00
      1.234  0.6030E-01  0.6029E-01  0.2763E+00  0.2763E+00
      1.318  0.8253E-01  0.8253E-01  0.2833E+00  0.2833E+00
      1.402  0.6292E-01  0.6293E-01  0.2886E+00  0.2886E+00
      1.487  0.2398E-01  0.2399E-01  0.2906E+00  0.2906E+00
      1.571  0.1737E-03  0.1778E-03  0.2906E+00  0.2906E+00
      1.655 -0.4247E-02 -0.4247E-02  0.2902E+00  0.2902E+00
      1.739 -0.2102E-02 -0.2103E-02  0.2901E+00  0.2901E+00
      1.823 -0.5414E-03 -0.5417E-03  0.2900E+00  0.2900E+00
      1.908 -0.8885E-04 -0.8891E-04  0.2900E+00  0.2900E+00
      1.992 -0.3741E-04 -0.3740E-04  0.2900E+00  0.2900E+00
      2.076 -0.2223E-03 -0.2222E-03  0.2900E+00  0.2900E+00
      2.160 -0.1114E-02 -0.1113E-02  0.2899E+00  0.2899E+00
      2.244 -0.3280E-02 -0.3279E-02  0.2896E+00  0.2896E+00
      2.329 -0.3742E-02 -0.3743E-02  0.2893E+00  0.2893E+00
      2.413  0.8750E-02  0.8743E-02  0.2900E+00  0.2900E+00
      2.497  0.4256E-01  0.4254E-01  0.2936E+00  0.2936E+00
      2.581  0.7724E-01  0.7724E-01  0.3001E+00  0.3001E+00
      2.665  0.7652E-01  0.7652E-01  0.3066E+00  0.3066E+00
      2.750  0.4122E-01  0.4124E-01  0.3100E+00  0.3100E+00
      2.834  0.7992E-02  0.7998E-02  0.3107E+00  0.3107E+00
      2.918 -0.3852E-02 -0.3851E-02  0.3104E+00  0.3104E+00
      3.002 -0.3199E-02 -0.3200E-02  0.3101E+00  0.3101E+00
      3.086 -0.1064E-02 -0.1065E-02  0.3100E+00  0.3100E+00
      3.171 -0.2086E-03 -0.2087E-03  0.3100E+00  0.3100E+00
      3.255 -0.2631E-04 -0.2633E-04  0.3100E+00  0.3100E+00
      3.339 -0.2212E-05 -0.2214E-05  0.3100E+00  0.3100E+00
      3.423 -0.1265E-06 -0.1266E-06  0.3100E+00  0.3100E+00
      3.507 -0.1692E-07 -0.1692E-07  0.3100E+00  0.3100E+00
      3.592 -0.2570E-06 -0.2568E-06  0.3100E+00  0.3100E+00
      3.676 -0.3755E-05 -0.3752E-05  0.3100E+00  0.3100E+00
      3.760 -0.3696E-04 -0.3694E-04  0.3100E+00  0.3100E+00
      3.844 -0.2394E-03 -0.2393E-03  0.3100E+00  0.3100E+00
      3.928 -0.9696E-03 -0.9692E-03  0.3099E+00  0.3099E+00
      4.013 -0.2114E-02 -0.2114E-02  0.3097E+00  0.3097E+00
      4.097 -0.5935E-03 -0.5948E-03  0.3097E+00  0.3097E+00
      4.181  0.9495E-02  0.9491E-02  0.3105E+00  0.3105E+00
      4.265  0.2666E-01  0.2665E-01  0.3127E+00  0.3127E+00
      4.349  0.3773E-01  0.3772E-01  0.3159E+00  0.3159E+00
      4.434  0.4162E-01  0.4161E-01  0.3194E+00  0.3194E+00
      4.518  0.5679E-01  0.5678E-01  0.3242E+00  0.3242E+00
      4.602  0.7843E-01  0.7843E-01  0.3308E+00  0.3308E+00
      4.686  0.7318E-01  0.7318E-01  0.3369E+00  0.3369E+00
      4.770  0.3810E-01  0.3811E-01  0.3401E+00  0.3401E+00
      4.854  0.6592E-02  0.6599E-02  0.3407E+00  0.3407E+00
      4.939 -0.4040E-02 -0.4039E-02  0.3404E+00  0.3404E+00
      5.023 -0.3078E-02 -0.3078E-02  0.3401E+00  0.3401E+00
      5.107 -0.9910E-03 -0.9915E-03  0.3400E+00  0.3400E+00
      5.191 -0.1898E-03 -0.1899E-03  0.3400E+00  0.3400E+00
      5.275 -0.2566E-04 -0.2568E-04  0.3400E+00  0.3400E+00
      5.360 -0.2593E-04 -0.2591E-04  0.3400E+00  0.3400E+00
      5.444 -0.1698E-03 -0.1697E-03  0.3400E+00  0.3400E+00
      5.528 -0.7598E-03 -0.7595E-03  0.3399E+00  0.3399E+00
      5.612 -0.1910E-02 -0.1910E-02  0.3398E+00  0.3398E+00
      5.696 -0.1250E-02 -0.1251E-02  0.3397E+00  0.3397E+00
      5.781  0.7501E-02  0.7497E-02  0.3403E+00  0.3403E+00
      5.865  0.2610E-01  0.2609E-01  0.3425E+00  0.3425E+00
      5.949  0.4059E-01  0.4058E-01  0.3459E+00  0.3459E+00
      6.033  0.3505E-01  0.3506E-01  0.3489E+00  0.3488E+00
      6.117  0.1591E-01  0.1591E-01  0.3502E+00  0.3502E+00
      6.202  0.1643E-02  0.1645E-02  0.3503E+00  0.3503E+00
      6.286 -0.2142E-02 -0.2142E-02  0.3501E+00  0.3501E+00
      6.370 -0.1311E-02 -0.1312E-02  0.3500E+00  0.3500E+00
      6.454 -0.4478E-03 -0.4480E-03  0.3500E+00  0.3500E+00
      6.538 -0.5282E-03 -0.5280E-03  0.3500E+00  0.3500E+00
      6.623 -0.1895E-02 -0.1894E-02  0.3498E+00  0.3498E+00
      6.707 -0.4137E-02 -0.4136E-02  0.3494E+00  0.3494E+00
      6.791 -0.9257E-03 -0.9296E-03  0.3494E+00  0.3494E+00
      6.875  0.2065E-01  0.2064E-01  0.3511E+00  0.3511E+00
      6.959  0.5919E-01  0.5917E-01  0.3561E+00  0.3561E+00
      7.044  0.8174E-01  0.8174E-01  0.3630E+00  0.3630E+00
      7.128  0.6144E-01  0.6146E-01  0.3681E+00  0.3681E+00
      7.212  0.2078E-01  0.2080E-01  0.3699E+00  0.3699E+00
      7.296  0.3740E-02  0.3739E-02  0.3702E+00  0.3702E+00
      7.380  0.2729E-01  0.2728E-01  0.3725E+00  0.3725E+00
      7.465  0.6772E-01  0.6771E-01  0.3782E+00  0.3782E+00
      7.549  0.8068E-01  0.8068E-01  0.3850E+00  0.3850E+00
      7.633  0.5236E-01  0.5237E-01  0.3894E+00  0.3894E+00
      7.717  0.1514E-01  0.1515E-01  0.3907E+00  0.3907E+00
      7.801 -0.2714E-02 -0.2711E-02  0.3905E+00  0.3905E+00
      7.886 -0.4854E-02 -0.4855E-02  0.3901E+00  0.3901E+00
      7.970 -0.3642E-02 -0.3643E-02  0.3897E+00  0.3897E+00
      8.054 -0.4210E-03 -0.4231E-03  0.3897E+00  0.3897E+00
      8.138  0.1146E-01  0.1145E-01  0.3907E+00  0.3907E+00
      8.222  0.3089E-01  0.3088E-01  0.3933E+00  0.3933E+00
      8.307  0.4091E-01  0.4091E-01  0.3967E+00  0.3967E+00
      8.391  0.2944E-01  0.2944E-01  0.3992E+00  0.3992E+00
      8.475  0.9178E-02  0.9184E-02  0.4000E+00  0.4000E+00
      8.559  0.1570E-02  0.1569E-02  0.4001E+00  0.4001E+00
      8.643  0.1396E-01  0.1395E-01  0.4013E+00  0.4013E+00
      8.728  0.3417E-01  0.3416E-01  0.4042E+00  0.4042E+00
      8.812  0.4028E-01  0.4029E-01  0.4075E+00  0.4075E+00
      8.896  0.2589E-01  0.2590E-01  0.4097E+00  0.4097E+00
      8.980  0.7377E-02  0.7381E-02  0.4103E+00  0.4103E+00
      9.064 -0.1280E-02 -0.1279E-02  0.4102E+00  0.4102E+00
      9.149 -0.1902E-02 -0.1902E-02  0.4101E+00  0.4101E+00
      9.233 -0.7520E-03 -0.7523E-03  0.4100E+00  0.4100E+00
      9.317 -0.1672E-03 -0.1673E-03  0.4100E+00  0.4100E+00
      9.401 -0.2357E-04 -0.2359E-04  0.4100E+00  0.4100E+00
      9.485 -0.2199E-05 -0.2201E-05  0.4100E+00  0.4100E+00
      9.570 -0.1387E-06 -0.1388E-06  0.4100E+00  0.4100E+00
      9.654 -0.5979E-08 -0.5985E-08  0.4100E+00  0.4100E+00
      9.738 -0.1775E-09 -0.1777E-09  0.4100E+00  0.4100E+00
      9.822 -0.3643E-11 -0.3648E-11  0.4100E+00  0.4100E+00
      9.906 -0.5190E-13 -0.5198E-13  0.4100E+00  0.4100E+00
      9.990 -0.5274E-15 -0.5274E-15  0.4100E+00  0.4100E+00
     10.075  0.0000E+00  0.0000E+00  0.4100E+00  0.4100E+00
     10.159  0.0000E+00  0.0000E+00  0.4100E+00  0.4100E+00
     10.243  0.0000E+00  0.0000E+00  0.4100E+00  0.4100E+00
     10.327  0.0000E+00  0.0000E+00  0.4100E+00  0.4100E+00
     10.411  0.0000E+00  0.0000E+00  0.4100E+00  0.4100E+00
     10.496  0.0000E+00  0.0000E+00  0.4100E+00  0.4100E+00
     10.580  0.0000E+00  0.0000E+00  0.4100E+00  0.4100E+00
     10.664  0.0000E+00  0.0000E+00  0.4100E+00  0.4100E+00
     10.748  0.0000E+00  0.0000E+00  0.4100E+00  0.4100E+00
