    7    7  100    2
  0.2544720E+02  0.5626600E-09  0.5626600E-09  0.5626600E-09  0.5000000E-15
  1.000000000000000E-004
  CAR 
 unknown system                          
   62    1   41
 
  0.2500000E+00  0.2500000E+00  0.2500000E+00  0.1000000E+01
   1      -12.510758    -12.510681
   2      -12.485981    -12.485904
   3      -12.485981    -12.485903
   4      -12.459838    -12.459759
   5      -12.436866    -12.436788
   6      -12.436866    -12.436788
   7      -12.415182    -12.415104
   8      -12.415182    -12.415103
   9      -12.410085    -12.410006
  10      -12.398986    -12.398911
  11      -12.398986    -12.398910
  12      -12.389283    -12.389204
  13      -12.385898    -12.385823
  14      -12.375564    -12.375485
  15      -12.375563    -12.375484
  16       -9.079909     -9.079894
  17       -7.836144     -7.836130
  18       -7.836143     -7.836130
  19       -7.537117     -7.537105
  20       -3.661723     -3.661696
  21       -3.661722     -3.661696
  22       -2.219428     -2.219405
  23       -0.661724     -0.661696
  24       -0.661724     -0.661695
  25       -0.468745     -0.468725
  26        0.522149      0.522180
  27        0.668805      0.668829
  28        1.278903      1.278931
  29        1.278903      1.278931
  30        2.579789      2.579814
  31        2.579789      2.579814
  32        4.310806      4.310830
  33        4.596211      4.596239
  34        4.596212      4.596240
  35        5.927650      5.927676
  36        7.006890      7.006921
  37        7.006890      7.006921
  38        7.486528      7.486557
  39        7.486528      7.486557
  40        8.263970      8.263997
  41        8.748227      8.748254
