Processors received = 1
script running on host compute-0-1.local
PBS_NODEFILE
compute-0-1
 running on    1 nodes
 distr:  one band on    1 nodes,    1 groups
 vasp.5.2.2 15Apr09 complex 
 POSCAR found type information on POSCAR  Al
 POSCAR found :  1 types and    3 ions
 LDA part: xc-table for Ceperly-Alder, standard interpolation
 POSCAR, INCAR and KPOINTS ok, starting setup
 FFT: planning ...(           1 )
 reading WAVECAR
 entering main loop
       N       E                     dE             d eps       ncg     rms          rms(c)
DAV:   1     0.355059803572E+01    0.35506E+01   -0.27268E+03    16   0.610E+02
DAV:   2    -0.874319264272E+01   -0.12294E+02   -0.12301E+02    16   0.680E+01
DAV:   3    -0.892640814171E+01   -0.18322E+00   -0.13179E+00    32   0.104E+01
DAV:   4    -0.892656486454E+01   -0.15672E-03   -0.15659E-03    16   0.197E-01
DAV:   5    -0.892656575424E+01   -0.88970E-06   -0.88989E-06    32   0.159E-02    0.211E+00
DAV:   6    -0.875557973411E+01    0.17099E+00   -0.23507E-01    16   0.263E+00    0.118E+00
DAV:   7    -0.870572614630E+01    0.49854E-01   -0.18537E-01    24   0.245E+00    0.294E-01
DAV:   8    -0.870559862334E+01    0.12752E-03   -0.68432E-03    16   0.723E-01    0.226E-02
DAV:   9    -0.870559046404E+01    0.81593E-05   -0.21420E-04    32   0.120E-01
   1 F= -.87055905E+01 E0= -.86780828E+01  d E =-.870559E+01
 curvature:   0.00 expect dE= 0.000E+00 dE for cont linesearch  0.000E+00
 trial: gam= 0.00000 g(F)=  0.000E+00 g(S)=  0.000E+00 ort = 0.000E+00 (trialstep = 0.100E+01)
 search vector abs. value=  0.100E-09
 reached required accuracy - stopping structural energy minimisation
