Processors received = 12
script running on host compute-1-26.local
PBS_NODEFILE
compute-1-26
compute-1-26
compute-1-26
compute-1-26
compute-1-26
compute-1-26
compute-1-26
compute-1-26
compute-1-26
compute-1-26
compute-1-26
compute-1-26
 running on   12 nodes
 distr:  one band on    1 nodes,   12 groups
 vasp.5.2.2 15Apr09 complex 
 POSCAR found type information on POSCAR  Al Cu
 POSCAR found :  2 types and   31 ions

 ----------------------------------------------------------------------------- 
|                                                                             |
|  ADVICE TO THIS USER RUNNING 'VASP/VAMP'   (HEAR YOUR MASTER'S VOICE ...):  |
|                                                                             |
|      You have a (more or less) 'large supercell' and for larger cells       |
|      it might be more efficient to use real space projection operators      |
|      So try LREAL= Auto  in the INCAR   file.                               |
|      Mind: If you want to do a very accurate calculations keep the          |
|      reciprocal projection scheme          (i.e. LREAL=.FALSE.)             |
|                                                                             |
 ----------------------------------------------------------------------------- 

 LDA part: xc-table for Pade appr. of Perdew
 POSCAR, INCAR and KPOINTS ok, starting setup
 FFT: planning ...(           1 )
 reading WAVECAR
 entering main loop
       N       E                     dE             d eps       ncg     rms          rms(c)
RMM:   1     0.299557576291E+03    0.29956E+03   -0.18229E+04   144   0.608E+02
RMM:   2    -0.310403452900E+02   -0.33060E+03   -0.32067E+03   144   0.134E+02
RMM:   3    -0.926280563727E+02   -0.61588E+02   -0.62803E+02   144   0.478E+01
RMM:   4    -0.106598779622E+03   -0.13971E+02   -0.13125E+02   144   0.457E+01
RMM:   5    -0.113417019217E+03   -0.68182E+01   -0.56969E+01   144   0.229E+01
RMM:   6    -0.116554866256E+03   -0.31378E+01   -0.25204E+01   144   0.214E+01
RMM:   7    -0.118047479601E+03   -0.14926E+01   -0.13185E+01   144   0.106E+01
RMM:   8    -0.118834557374E+03   -0.78708E+00   -0.66929E+00   144   0.983E+00
RMM:   9    -0.119643834354E+03   -0.80928E+00   -0.76624E+00   387   0.498E+00
RMM:  10    -0.119713633381E+03   -0.69799E-01   -0.31343E-01   318   0.456E-01
RMM:  11    -0.119717503025E+03   -0.38696E-02   -0.13382E-02   250   0.966E-02
RMM:  12    -0.119717576725E+03   -0.73700E-04   -0.30819E-04   212   0.300E-02    0.299E+01
RMM:  13    -0.156298621807E+03   -0.36581E+02   -0.41468E+02   414   0.580E+01    0.242E+01
RMM:  14    -0.123466511654E+03    0.32832E+02   -0.66914E+01   288   0.222E+01    0.138E+01
RMM:  15    -0.114780581728E+03    0.86859E+01   -0.40876E+01   288   0.233E+01    0.351E+00
RMM:  16    -0.114882563360E+03   -0.10198E+00   -0.10209E+00   301   0.228E+00    0.789E-01
RMM:  17    -0.114859647632E+03    0.22916E-01   -0.80283E-02   310   0.904E-01    0.400E-01
RMM:  18    -0.114882805967E+03   -0.23158E-01   -0.78549E-02   288   0.108E+00    0.112E+00
RMM:  19    -0.114866452222E+03    0.16354E-01   -0.24736E-01   288   0.192E+00    0.723E-01
RMM:  20    -0.114858752147E+03    0.77001E-02   -0.92602E-03   276   0.426E-01    0.325E-01
RMM:  21    -0.114856590994E+03    0.21612E-02   -0.89034E-03   274   0.360E-01    0.895E-03
RMM:  22    -0.114856611048E+03   -0.20054E-04   -0.15665E-04   190   0.337E-02
   1 F= -.11485661E+03 E0= -.11485853E+03  d E =-.114857E+03
 curvature:   0.00 expect dE= 0.000E+00 dE for cont linesearch  0.000E+00
 trial: gam= 0.00000 g(F)=  0.228E+00 g(S)=  0.000E+00 ort = 0.000E+00 (trialstep = 0.100E+01)
 search vector abs. value=  0.228E+00
 bond charge predicted
       N       E                     dE             d eps       ncg     rms          rms(c)
RMM:   1    -0.115054362998E+03   -0.19777E+00   -0.14369E+00   288   0.326E+00    0.250E-01
RMM:   2    -0.115048123671E+03    0.62393E-02   -0.19871E-02   295   0.434E-01    0.109E-01
RMM:   3    -0.115047863313E+03    0.26036E-03   -0.30112E-03   298   0.185E-01    0.676E-02
RMM:   4    -0.115047820808E+03    0.42506E-04   -0.77275E-04   234   0.111E-01
   2 F= -.11504782E+03 E0= -.11504717E+03  d E =-.191210E+00
 trial-energy change:   -0.191210  1 .order   -0.191447   -0.228449   -0.154446
 step:   3.0870(harm=  3.0870)  dis= 0.07408  next Energy=  -115.209226 (dE=-0.353E+00)
 bond charge predicted
       N       E                     dE             d eps       ncg     rms          rms(c)
RMM:   1    -0.115247047948E+03   -0.19918E+00   -0.61594E+00   288   0.676E+00    0.534E-01
RMM:   2    -0.115219801124E+03    0.27247E-01   -0.90756E-02   291   0.908E-01    0.251E-01
RMM:   3    -0.115219109654E+03    0.69147E-03   -0.13875E-02   315   0.422E-01    0.180E-01
RMM:   4    -0.115218663170E+03    0.44648E-03   -0.50983E-03   278   0.278E-01    0.120E-01
RMM:   5    -0.115218560874E+03    0.10230E-03   -0.69491E-04   243   0.109E-01    0.357E-02
RMM:   6    -0.115218584823E+03   -0.23950E-04   -0.64976E-05   172   0.290E-02
   3 F= -.11521858E+03 E0= -.11521166E+03  d E =-.361974E+00
 curvature:  -1.54 expect dE=-0.320E-01 dE for cont linesearch -0.896E-03
 trial: gam= 0.04044 g(F)=  0.208E-01 g(S)=  0.000E+00 ort = 0.115E-01 (trialstep = 0.142E+01)
 search vector abs. value=  0.221E-01
 bond charge predicted
       N       E                     dE             d eps       ncg     rms          rms(c)
RMM:   1    -0.115244269901E+03   -0.25709E-01   -0.27497E-01   288   0.142E+00    0.114E-01
RMM:   2    -0.115243160219E+03    0.11097E-02   -0.40791E-03   289   0.205E-01    0.532E-02
RMM:   3    -0.115243081527E+03    0.78693E-04   -0.62578E-04   276   0.856E-02
   4 F= -.11524308E+03 E0= -.11523641E+03  d E =-.244967E-01
 trial-energy change:   -0.024497  1 .order   -0.024485   -0.030081   -0.018890
 step:   3.8100(harm=  3.8100)  dis= 0.03745  next Energy=  -115.259013 (dE=-0.404E-01)
 bond charge predicted
       N       E                     dE             d eps       ncg     rms          rms(c)
RMM:   1    -0.115262380781E+03   -0.19221E-01   -0.78598E-01   288   0.240E+00    0.205E-01
RMM:   2    -0.115259143543E+03    0.32372E-02   -0.11859E-02   293   0.349E-01    0.906E-02
RMM:   3    -0.115258892853E+03    0.25069E-03   -0.15718E-03   292   0.121E-01    0.399E-02
RMM:   4    -0.115258901659E+03   -0.88059E-05   -0.13226E-04   178   0.435E-02
   5 F= -.11525890E+03 E0= -.11525269E+03  d E =-.403168E-01
 curvature:  -1.98 expect dE=-0.576E-02 dE for cont linesearch -0.100E-05
 trial: gam= 0.16560 g(F)=  0.291E-02 g(S)=  0.000E+00 ort =-0.106E-03 (trialstep = 0.190E+01)
 search vector abs. value=  0.348E-02
 reached required accuracy - stopping structural energy minimisation
