  31  31   0   0
  0.1706110E+02  0.8087040E-09  0.8087040E-09  0.8087040E-09  0.5000000E-15
  1.000000000000000E-004
  CAR 
 unknown system                          
     12.56846850     -5.03940387  301      7.75243239      1.00000000
     -5.039  0.0000E+00  0.0000E+00
     -4.981  0.0000E+00  0.0000E+00
     -4.922  0.0000E+00  0.0000E+00
     -4.863  0.0000E+00  0.0000E+00
     -4.805  0.0000E+00  0.0000E+00
     -4.746  0.0000E+00  0.0000E+00
     -4.687 -0.1284E-29 -0.7536E-31
     -4.629 -0.1421E-27 -0.8416E-29
     -4.570 -0.1332E-25 -0.7901E-27
     -4.511 -0.1049E-23 -0.6235E-25
     -4.452 -0.6939E-22 -0.4135E-23
     -4.394 -0.3856E-20 -0.2304E-21
     -4.335 -0.1799E-18 -0.1079E-19
     -4.276 -0.7048E-17 -0.4245E-18
     -4.218 -0.2218E-15 -0.1344E-16
     -4.159 -0.6191E-14 -0.3768E-15
     -4.100 -0.1425E-12 -0.8743E-14
     -4.042 -0.2750E-11 -0.1701E-12
     -3.983 -0.4439E-10 -0.2775E-11
     -3.924 -0.5988E-09 -0.3792E-10
     -3.866 -0.6742E-08 -0.4336E-09
     -3.807 -0.6324E-07 -0.4146E-08
     -3.748 -0.4931E-06 -0.3309E-07
     -3.689 -0.3185E-05 -0.2200E-06
     -3.631 -0.1697E-04 -0.1216E-05
     -3.572 -0.7401E-04 -0.5560E-05
     -3.513 -0.2615E-03 -0.2091E-04
     -3.455 -0.7343E-03 -0.6401E-04
     -3.396 -0.1575E-02 -0.1564E-03
     -3.337 -0.2320E-02 -0.2926E-03
     -3.279 -0.1323E-02 -0.3702E-03
     -3.220  0.4076E-02 -0.1310E-03
     -3.161  0.1547E-01  0.7770E-03
     -3.103  0.3033E-01  0.2557E-02
     -3.044  0.4168E-01  0.5004E-02
     -2.985  0.4275E-01  0.7513E-02
     -2.926  0.3285E-01  0.9441E-02
     -2.868  0.1802E-01  0.1050E-01
     -2.809  0.5673E-02  0.1083E-01
     -2.750 -0.7611E-03  0.1079E-01
     -2.692 -0.2339E-02  0.1065E-01
     -2.633 -0.1747E-02  0.1055E-01
     -2.574 -0.8795E-03  0.1050E-01
     -2.516 -0.4120E-03  0.1047E-01
     -2.457 -0.4398E-03  0.1045E-01
     -2.398 -0.1067E-02  0.1038E-01
     -2.340 -0.2478E-02  0.1024E-01
     -2.281 -0.4310E-02  0.9985E-02
     -2.222 -0.4440E-02  0.9724E-02
     -2.163  0.1621E-02  0.9819E-02
     -2.105  0.1860E-01  0.1091E-01
     -2.046  0.4651E-01  0.1364E-01
     -1.987  0.7733E-01  0.1818E-01
     -1.929  0.9863E-01  0.2397E-01
     -1.870  0.1020E+00  0.2996E-01
     -1.811  0.8821E-01  0.3513E-01
     -1.753  0.6435E-01  0.3891E-01
     -1.694  0.3871E-01  0.4118E-01
     -1.635  0.1751E-01  0.4221E-01
     -1.577  0.3908E-02  0.4244E-01
     -1.518 -0.2190E-02  0.4231E-01
     -1.459 -0.3285E-02  0.4212E-01
     -1.400 -0.2376E-02  0.4198E-01
     -1.342 -0.1479E-02  0.4189E-01
     -1.283 -0.1472E-02  0.4181E-01
     -1.224 -0.2547E-02  0.4166E-01
     -1.166 -0.4108E-02  0.4142E-01
     -1.107 -0.3830E-02  0.4119E-01
     -1.048  0.2744E-02  0.4135E-01
     -0.990  0.1980E-01  0.4251E-01
     -0.931  0.4607E-01  0.4522E-01
     -0.872  0.7212E-01  0.4945E-01
     -0.814  0.8573E-01  0.5448E-01
     -0.755  0.8225E-01  0.5931E-01
     -0.696  0.6842E-01  0.6333E-01
     -0.637  0.5457E-01  0.6653E-01
     -0.579  0.4471E-01  0.6915E-01
     -0.520  0.3577E-01  0.7125E-01
     -0.461  0.2465E-01  0.7270E-01
     -0.403  0.1267E-01  0.7344E-01
     -0.344  0.3443E-02  0.7365E-01
     -0.285 -0.1299E-02  0.7357E-01
     -0.227 -0.2719E-02  0.7341E-01
     -0.168 -0.3213E-02  0.7322E-01
     -0.109 -0.4476E-02  0.7296E-01
     -0.051 -0.6164E-02  0.7260E-01
      0.008 -0.4767E-02  0.7232E-01
      0.067  0.6175E-02  0.7268E-01
      0.126  0.3204E-01  0.7456E-01
      0.184  0.7009E-01  0.7867E-01
      0.243  0.1066E+00  0.8493E-01
      0.302  0.1245E+00  0.9224E-01
      0.360  0.1173E+00  0.9912E-01
      0.419  0.9364E-01  0.1046E+00
      0.478  0.6809E-01  0.1086E+00
      0.536  0.4873E-01  0.1115E+00
      0.595  0.3451E-01  0.1135E+00
      0.654  0.2190E-01  0.1148E+00
      0.713  0.1050E-01  0.1154E+00
      0.771  0.2223E-02  0.1155E+00
      0.830 -0.2173E-02  0.1154E+00
      0.889 -0.4183E-02  0.1152E+00
      0.947 -0.5985E-02  0.1148E+00
      1.006 -0.7896E-02  0.1143E+00
      1.065 -0.6275E-02  0.1140E+00
      1.123  0.6398E-02  0.1144E+00
      1.182  0.3691E-01  0.1165E+00
      1.241  0.8330E-01  0.1214E+00
      1.299  0.1310E+00  0.1291E+00
      1.358  0.1604E+00  0.1385E+00
      1.417  0.1601E+00  0.1479E+00
      1.476  0.1345E+00  0.1558E+00
      1.534  0.9755E-01  0.1615E+00
      1.593  0.6335E-01  0.1652E+00
      1.652  0.4098E-01  0.1677E+00
      1.710  0.3321E-01  0.1696E+00
      1.769  0.3576E-01  0.1717E+00
      1.828  0.3926E-01  0.1740E+00
      1.886  0.3578E-01  0.1761E+00
      1.945  0.2464E-01  0.1776E+00
      2.004  0.1129E-01  0.1782E+00
      2.062  0.1203E-02  0.1783E+00
      2.121 -0.4255E-02  0.1780E+00
      2.180 -0.6526E-02  0.1777E+00
      2.239 -0.5902E-02  0.1773E+00
      2.297  0.7709E-03  0.1774E+00
      2.356  0.1812E-01  0.1784E+00
      2.415  0.4680E-01  0.1812E+00
      2.473  0.7936E-01  0.1858E+00
      2.532  0.1028E+00  0.1919E+00
      2.591  0.1070E+00  0.1981E+00
      2.649  0.9115E-01  0.2035E+00
      2.708  0.6340E-01  0.2072E+00
      2.767  0.3456E-01  0.2092E+00
      2.825  0.1258E-01  0.2100E+00
      2.884  0.2355E-04  0.2100E+00
      2.943 -0.5198E-02  0.2097E+00
      3.002 -0.6976E-02  0.2093E+00
      3.060 -0.7583E-02  0.2088E+00
      3.119 -0.5427E-02  0.2085E+00
      3.178  0.4611E-02  0.2088E+00
      3.236  0.2749E-01  0.2104E+00
      3.295  0.6271E-01  0.2141E+00
      3.354  0.1022E+00  0.2201E+00
      3.412  0.1343E+00  0.2279E+00
      3.471  0.1505E+00  0.2368E+00
      3.530  0.1486E+00  0.2455E+00
      3.588  0.1319E+00  0.2532E+00
      3.647  0.1079E+00  0.2596E+00
      3.706  0.8611E-01  0.2646E+00
      3.765  0.7389E-01  0.2690E+00
      3.823  0.7319E-01  0.2733E+00
      3.882  0.8053E-01  0.2780E+00
      3.941  0.9117E-01  0.2833E+00
      3.999  0.1027E+00  0.2894E+00
      4.058  0.1140E+00  0.2961E+00
      4.117  0.1216E+00  0.3032E+00
      4.175  0.1189E+00  0.3102E+00
      4.234  0.1013E+00  0.3161E+00
      4.293  0.7155E-01  0.3203E+00
      4.351  0.4104E-01  0.3227E+00
      4.410  0.2446E-01  0.3242E+00
      4.469  0.3230E-01  0.3261E+00
      4.528  0.6402E-01  0.3298E+00
      4.586  0.1069E+00  0.3361E+00
      4.645  0.1432E+00  0.3445E+00
      4.704  0.1618E+00  0.3540E+00
      4.762  0.1629E+00  0.3636E+00
      4.821  0.1544E+00  0.3726E+00
      4.880  0.1435E+00  0.3810E+00
      4.938  0.1323E+00  0.3888E+00
      4.997  0.1188E+00  0.3958E+00
      5.056  0.1013E+00  0.4017E+00
      5.114  0.8176E-01  0.4065E+00
      5.173  0.6446E-01  0.4103E+00
      5.232  0.5135E-01  0.4133E+00
      5.291  0.4041E-01  0.4157E+00
      5.349  0.2854E-01  0.4174E+00
      5.408  0.1568E-01  0.4183E+00
      5.467  0.5839E-02  0.4186E+00
      5.525  0.4430E-02  0.4189E+00
      5.584  0.1421E-01  0.4197E+00
      5.643  0.3238E-01  0.4216E+00
      5.701  0.5106E-01  0.4246E+00
      5.760  0.6182E-01  0.4282E+00
      5.819  0.6106E-01  0.4318E+00
      5.877  0.5133E-01  0.4348E+00
      5.936  0.3822E-01  0.4371E+00
      5.995  0.2694E-01  0.4387E+00
      6.054  0.2120E-01  0.4399E+00
      6.112  0.2253E-01  0.4412E+00
      6.171  0.2890E-01  0.4429E+00
      6.230  0.3492E-01  0.4450E+00
      6.288  0.3488E-01  0.4470E+00
      6.347  0.2667E-01  0.4486E+00
      6.406  0.1330E-01  0.4494E+00
      6.464  0.1720E-02  0.4495E+00
      6.523  0.5812E-03  0.4495E+00
      6.582  0.1679E-01  0.4505E+00
      6.640  0.5045E-01  0.4535E+00
      6.699  0.9169E-01  0.4588E+00
      6.758  0.1258E+00  0.4662E+00
      6.817  0.1454E+00  0.4748E+00
      6.875  0.1554E+00  0.4839E+00
      6.934  0.1634E+00  0.4935E+00
      6.993  0.1666E+00  0.5032E+00
      7.051  0.1528E+00  0.5122E+00
      7.110  0.1167E+00  0.5191E+00
      7.169  0.6858E-01  0.5231E+00
      7.227  0.2637E-01  0.5246E+00
      7.286  0.1242E-02  0.5247E+00
      7.345 -0.7827E-02  0.5242E+00
      7.403 -0.8570E-02  0.5237E+00
      7.462 -0.7722E-02  0.5233E+00
      7.521 -0.7128E-02  0.5229E+00
      7.580 -0.3597E-02  0.5227E+00
      7.638  0.8731E-02  0.5232E+00
      7.697  0.3348E-01  0.5251E+00
      7.756  0.6691E-01  0.5291E+00
      7.814  0.9846E-01  0.5348E+00
      7.873  0.1193E+00  0.5418E+00
      7.932  0.1313E+00  0.5496E+00
      7.990  0.1443E+00  0.5580E+00
      8.049  0.1644E+00  0.5677E+00
      8.108  0.1849E+00  0.5785E+00
      8.167  0.1917E+00  0.5898E+00
      8.225  0.1755E+00  0.6001E+00
      8.284  0.1388E+00  0.6082E+00
      8.343  0.9356E-01  0.6137E+00
      8.401  0.5250E-01  0.6168E+00
      8.460  0.2291E-01  0.6181E+00
      8.519  0.5670E-02  0.6185E+00
      8.577 -0.2248E-02  0.6183E+00
      8.636 -0.4910E-02  0.6180E+00
      8.695 -0.5736E-02  0.6177E+00
      8.753 -0.6304E-02  0.6173E+00
      8.812 -0.5266E-02  0.6170E+00
      8.871  0.1744E-02  0.6171E+00
      8.930  0.1957E-01  0.6183E+00
      8.988  0.4852E-01  0.6211E+00
      9.047  0.8099E-01  0.6259E+00
      9.106  0.1052E+00  0.6321E+00
      9.164  0.1148E+00  0.6388E+00
      9.223  0.1152E+00  0.6456E+00
      9.282  0.1170E+00  0.6524E+00
      9.340  0.1236E+00  0.6597E+00
      9.399  0.1256E+00  0.6671E+00
      9.458  0.1109E+00  0.6736E+00
      9.516  0.7755E-01  0.6781E+00
      9.575  0.3724E-01  0.6803E+00
      9.634  0.5574E-02  0.6806E+00
      9.693 -0.6743E-02  0.6802E+00
      9.751  0.4920E-02  0.6805E+00
      9.810  0.4067E-01  0.6829E+00
      9.869  0.9371E-01  0.6884E+00
      9.927  0.1477E+00  0.6971E+00
      9.986  0.1824E+00  0.7078E+00
     10.045  0.1861E+00  0.7187E+00
     10.103  0.1620E+00  0.7282E+00
     10.162  0.1229E+00  0.7354E+00
     10.221  0.8073E-01  0.7402E+00
     10.279  0.4424E-01  0.7428E+00
     10.338  0.2019E-01  0.7439E+00
     10.397  0.1280E-01  0.7447E+00
     10.456  0.2001E-01  0.7459E+00
     10.514  0.3262E-01  0.7478E+00
     10.573  0.3964E-01  0.7501E+00
     10.632  0.3562E-01  0.7522E+00
     10.690  0.2343E-01  0.7536E+00
     10.749  0.1029E-01  0.7542E+00
     10.808  0.1596E-02  0.7543E+00
     10.866 -0.1820E-02  0.7542E+00
     10.925 -0.2011E-02  0.7540E+00
     10.984 -0.1206E-02  0.7540E+00
     11.042 -0.5231E-03  0.7539E+00
     11.101 -0.1769E-03  0.7539E+00
     11.160 -0.4807E-04  0.7539E+00
     11.219 -0.1066E-04  0.7539E+00
     11.277 -0.1948E-05  0.7539E+00
     11.336 -0.2947E-06  0.7539E+00
     11.395 -0.3708E-07  0.7539E+00
     11.453 -0.3890E-08  0.7539E+00
     11.512 -0.3409E-09  0.7539E+00
     11.571 -0.2499E-10  0.7539E+00
     11.629 -0.1534E-11  0.7539E+00
     11.688 -0.7889E-13  0.7539E+00
     11.747 -0.3407E-14  0.7539E+00
     11.805 -0.1188E-15  0.7539E+00
     11.864  0.0000E+00  0.7539E+00
     11.923  0.0000E+00  0.7539E+00
     11.982  0.0000E+00  0.7539E+00
     12.040  0.0000E+00  0.7539E+00
     12.099  0.0000E+00  0.7539E+00
     12.158  0.0000E+00  0.7539E+00
     12.216  0.0000E+00  0.7539E+00
     12.275  0.0000E+00  0.7539E+00
     12.334  0.0000E+00  0.7539E+00
     12.392  0.0000E+00  0.7539E+00
     12.451  0.0000E+00  0.7539E+00
     12.510  0.0000E+00  0.7539E+00
     12.568  0.0000E+00  0.7539E+00
