   31   31  191    1
  0.1706110E+02  0.8087040E-09  0.8087040E-09  0.8087040E-09  0.5000000E-15
  1.000000000000000E-004
  CAR 
 unknown system                          
  101    2   72
 
  0.2500000E+00  0.2500000E+00  0.2500000E+00  0.5000000E+00
   1       -3.039404
   2       -1.976460
   3       -1.924243
   4       -1.805505
   5       -0.865139
   6       -0.804378
   7       -0.623628
   8        0.236719
   9        0.273610
  10        0.307768
  11        0.561447
  12        1.292076
  13        1.314875
  14        1.380971
  15        1.400393
  16        1.529000
  17        1.791852
  18        2.467191
  19        2.533007
  20        2.660277
  21        3.321511
  22        3.374443
  23        3.454342
  24        3.529256
  25        3.599584
  26        3.711337
  27        3.880110
  28        3.987423
  29        4.110700
  30        4.170922
  31        4.220019
  32        4.592425
  33        4.630815
  34        4.669293
  35        4.760123
  36        4.804954
  37        4.917629
  38        4.960422
  39        5.007482
  40        5.301599
  41        5.703217
  42        5.933142
  43        6.178079
  44        6.712622
  45        6.772570
  46        6.805627
  47        6.938982
  48        6.982079
  49        7.016615
  50        7.044339
  51        7.781995
  52        7.865599
  53        7.938120
  54        8.030329
  55        8.045914
  56        8.079428
  57        8.147131
  58        8.182256
  59        8.253352
  60        9.083460
  61        9.134251
  62        9.216768
  63        9.358412
  64        9.381964
  65        9.437879
  66        9.859556
  67        9.910613
  68        9.980011
  69       10.024716
  70       10.055741
  71       10.149840
  72       10.516570
 
 -0.2500000E+00  0.2500000E+00  0.2500000E+00  0.5000000E+00
   1       -3.037820
   2       -1.975851
   3       -1.953994
   4       -1.781394
   5       -0.865126
   6       -0.831888
   7       -0.553331
   8        0.235526
   9        0.248406
  10        0.342121
  11        0.482053
  12        1.284385
  13        1.308116
  14        1.328091
  15        1.436592
  16        1.549228
  17        1.826452
  18        2.503436
  19        2.511379
  20        2.635127
  21        3.354251
  22        3.377764
  23        3.477265
  24        3.536169
  25        3.586623
  26        3.775886
  27        3.886579
  28        3.972622
  29        4.115960
  30        4.118866
  31        4.288326
  32        4.550934
  33        4.621477
  34        4.630533
  35        4.764393
  36        4.788706
  37        4.876971
  38        4.999551
  39        5.096441
  40        5.203866
  41        5.700022
  42        5.800925
  43        6.291432
  44        6.712055
  45        6.741322
  46        6.749917
  47        6.902539
  48        6.985888
  49        7.018648
  50        7.062815
  51        7.782229
  52        7.825443
  53        7.862020
  54        8.076863
  55        8.089249
  56        8.166413
  57        8.209735
  58        8.245460
  59        8.371238
  60        9.025526
  61        9.067033
  62        9.143482
  63        9.307619
  64        9.405173
  65        9.429277
  66        9.951142
  67        9.954599
  68        9.964862
  69        9.979650
  70       10.160180
  71       10.182331
  72       10.568469
