 vasp.5.2.2 15Apr09 complex 
 executed on             LinuxIFC date 2017.01.11  13:33:14
 running on   12 nodes
 distr:  one band on    1 nodes,   12 groups


--------------------------------------------------------------------------------------------------------


 INCAR:
 POTCAR:   PAW_PBE Al 04Jan2001                   
 POTCAR:   PAW_PBE Cu 05Jan2001                   
 POTCAR:   PAW_PBE Al 04Jan2001                   
   VRHFIN =Al: s2p1                                                             
   LEXCH  = PE                                                                  
   EATOM  =    53.5387 eV,    3.9350 Ry                                         
                                                                                
   TITEL  = PAW_PBE Al 04Jan2001                                                
   LULTRA =        F    use ultrasoft PP ?                                      
   IUNSCR =        1    unscreen: 0-lin 1-nonlin 2-no                           
   RPACOR =    1.500    partial core radius                                     
   POMASS =   26.982; ZVAL   =    3.000    mass and valenz                      
   RCORE  =    1.900    outmost cutoff radius                                   
   RWIGS  =    2.650; RWIGS  =    1.402    wigner-seitz radius (au A)           
   ENMAX  =  240.300; ENMIN  =  180.225 eV                                      
   ICORE  =        2    local potential                                         
   LCOR   =        T    correct aug charges                                     
   LPAW   =        T    paw PP                                                  
   EAUG   =  291.052                                                            
   DEXC   =    -.041                                                            
   RMAX   =    2.974    core radius for proj-oper                               
   RAUG   =    1.300    factor for augmentation sphere                          
   RDEP   =    1.966    radius for radial grids                                 
   QCUT   =   -4.203; QGAM   =    8.405    optimization parameters              
                                                                                
   Description                                                                  
     l     E      TYP  RCUT    TYP  RCUT                                        
     0   .000     23  1.900                                                     
     0   .000     23  1.900                                                     
     1   .000     23  1.900                                                     
     1  1.000     23  1.900                                                     
     2   .000      7  1.900                                                     
  local pseudopotential read in
  partial core-charges read in
  atomic valenz-charges read in
  non local Contribution for L=           0  read in
    real space projection operators read in
  non local Contribution for L=           0  read in
    real space projection operators read in
  non local Contribution for L=           1  read in
    real space projection operators read in
  non local Contribution for L=           1  read in
    real space projection operators read in
    PAW grid and wavefunctions read in
 
   number of l-projection  operators is LMAX  =           4
   number of lm-projection operators is LMMAX =           8
 
 POTCAR:   PAW_PBE Cu 05Jan2001                   
   VRHFIN =Cu: d10 p1                                                           
   LEXCH  = PE                                                                  
   EATOM  =  1390.9800 eV,  102.2341 Ry                                         
                                                                                
   TITEL  = PAW_PBE Cu 05Jan2001                                                
   LULTRA =        F    use ultrasoft PP ?                                      
   IUNSCR =        1    unscreen: 0-lin 1-nonlin 2-no                           
   RPACOR =    2.000    partial core radius                                     
   POMASS =   63.546; ZVAL   =   11.000    mass and valenz                      
   RCORE  =    2.300    outmost cutoff radius                                   
   RWIGS  =    2.480; RWIGS  =    1.312    wigner-seitz radius (au A)           
   ENMAX  =  273.214; ENMIN  =  204.910 eV                                      
   RCLOC  =    1.712    cutoff for local pot                                    
   LCOR   =        T    correct aug charges                                     
   LPAW   =        T    paw PP                                                  
   EAUG   =  516.456                                                            
   DEXC   =    -.008                                                            
   RMAX   =    2.789    core radius for proj-oper                               
   RAUG   =    1.300    factor for augmentation sphere                          
   RDEP   =    2.302    radius for radial grids                                 
   QCUT   =   -4.481; QGAM   =    8.962    optimization parameters              
                                                                                
   Description                                                                  
     l     E      TYP  RCUT    TYP  RCUT                                        
     2   .000     23  2.300                                                     
     2   .000     23  2.300                                                     
     0   .000     23  2.300                                                     
     0   .000     23  2.300                                                     
     1  -.200     23  2.300                                                     
     1   .000     23  2.300                                                     
     3   .000      7   .000                                                     
  local pseudopotential read in
  partial core-charges read in
  atomic valenz-charges read in
  non local Contribution for L=           2  read in
    real space projection operators read in
  non local Contribution for L=           2  read in
    real space projection operators read in
  non local Contribution for L=           0  read in
    real space projection operators read in
  non local Contribution for L=           0  read in
    real space projection operators read in
  non local Contribution for L=           1  read in
    real space projection operators read in
  non local Contribution for L=           1  read in
    real space projection operators read in
    PAW grid and wavefunctions read in
 
   number of l-projection  operators is LMAX  =           6
   number of lm-projection operators is LMMAX =          18
 

 ----------------------------------------------------------------------------- 
|                                                                             |
|  ADVICE TO THIS USER RUNNING 'VASP/VAMP'   (HEAR YOUR MASTER'S VOICE ...):  |
|                                                                             |
|      You have a (more or less) 'large supercell' and for larger cells       |
|      it might be more efficient to use real space projection operators      |
|      So try LREAL= Auto  in the INCAR   file.                               |
|      Mind: If you want to do a very accurate calculations keep the          |
|      reciprocal projection scheme          (i.e. LREAL=.FALSE.)             |
|                                                                             |
 ----------------------------------------------------------------------------- 

 PAW_PBE Al 04Jan2001                   :
 energy of atom  1       EATOM=  -53.5387
 kinetic energy error for atom=    0.0011 (will be added to EATOM!!)
 PAW_PBE Cu 05Jan2001                   :
 energy of atom  2       EATOM=-1390.9800
 kinetic energy error for atom=    0.0323 (will be added to EATOM!!)
 
 
 POSCAR: Al30 Cu1                                
  positions in direct lattice
  velocities in cartesian coordinates
 exchange correlation table for  LEXCH =        8
   RHO(1)=    0.500       N(1)  =     2000
   RHO(2)=  100.500       N(2)  =     4000

 VTST: version 2.03d, (02/18/09)

 CHAIN: initializing optimizer
 
 OPT: Using VASP Conjugate-Gradient optimizer
 CHAIN: Read ICHAIN            0
 


--------------------------------------------------------------------------------------------------------


 ion  position               nearest neighbor table
   1  0.996  0.992  0.999-  14 2.75  26 2.76  20 2.80  11 2.80   6 2.80  10 2.81   2 2.86   7 2.86
                            17 2.88  18 2.88   4 2.90   3 2.91
   2  0.246  0.999  0.248-   4 2.82   3 2.84  16 2.85  11 2.85   1 2.86  10 2.86  31 2.87  25 2.87
                            15 2.88   5 2.91  19 2.92
   3  0.247  0.250  0.002-   4 2.80   2 2.84   9 2.84  18 2.85  17 2.88  24 2.88   1 2.91   8 2.91
                            22 2.91   5 2.92  12 2.92
   4  0.003  0.250  0.248-   3 2.80   2 2.82   9 2.82  31 2.85   7 2.87  23 2.88  16 2.88  13 2.88
                             6 2.88   8 2.90   1 2.90  21 2.91
   5  0.503  0.996  0.997-  30 2.80  20 2.80  15 2.85  14 2.85   6 2.86  17 2.87  10 2.88  22 2.88
                             7 2.89   2 2.91   3 2.92
   6  0.753  0.996  0.247-  11 2.80   1 2.80  15 2.85  14 2.85   5 2.86  16 2.87  29 2.88   4 2.88
                             7 2.89  19 2.91  21 2.92
   7  0.754  0.250  0.996-  18 2.76   8 2.86   1 2.86  20 2.86  28 2.86  22 2.87   4 2.87   6 2.89
                             5 2.89  12 2.89  13 2.89
   8  0.996  0.508  0.999-  14 2.75  26 2.76  28 2.80  11 2.80  13 2.80  10 2.81   9 2.86   7 2.86
                            24 2.88  18 2.88   4 2.90   3 2.91
   9  0.246  0.501  0.248-   4 2.82   3 2.84  23 2.85  11 2.85   8 2.86  10 2.86  31 2.87  25 2.87
                            15 2.88  12 2.91  27 2.92
  10  0.246  0.750  0.998-   1 2.81   8 2.81  26 2.82  24 2.85  17 2.85  11 2.85   2 2.86   9 2.86
                            30 2.87   5 2.88  12 2.88  15 2.89
  11  0.996  0.750  0.247-   6 2.80  13 2.80   8 2.80   1 2.80  14 2.82  10 2.85   9 2.85   2 2.85
                            29 2.87  23 2.89  16 2.89  25 2.90
  12  0.503  0.504  0.997-  30 2.80  28 2.80  15 2.85  14 2.85  13 2.86  24 2.87  10 2.88  22 2.88
                             7 2.89   9 2.91   3 2.92
  13  0.753  0.504  0.247-  11 2.80   8 2.80  15 2.85  14 2.85  12 2.86  23 2.87  29 2.88   4 2.88
                             7 2.89  27 2.91  21 2.92
  14  0.757  0.750  0.993-  26 2.70   8 2.75  20 2.75   1 2.75  28 2.75  11 2.82  30 2.82   5 2.85
                             6 2.85  12 2.85  13 2.85  15 2.93
  15  0.500  0.750  0.250-   5 2.85   6 2.85  12 2.85  13 2.85  25 2.87   9 2.88  19 2.88   2 2.88
                            27 2.88  10 2.89  29 2.89  14 2.93
  16  0.001  1.000  0.502-  17 2.83  25 2.85   2 2.85  29 2.85  31 2.86   6 2.87  20 2.88  21 2.88
                            18 2.88   4 2.88  11 2.89  26 2.89
  17  0.248  1.000  0.749-  16 2.83  25 2.85  19 2.85  10 2.85  31 2.86   5 2.87   1 2.88   3 2.88
                            18 2.88  22 2.88  30 2.89  26 2.89
  18  0.996  0.250  0.754-   7 2.76   3 2.85  21 2.85   8 2.88   1 2.88  20 2.88  28 2.88  17 2.88
                            23 2.88  24 2.88  16 2.88  31 2.92
  19  0.502  0.999  0.504-  22 2.82  21 2.84  17 2.85  30 2.85  20 2.86  29 2.86  31 2.87  25 2.87
                            15 2.88   6 2.91   2 2.92
  20  0.751  0.992  0.754-  14 2.75  26 2.76   1 2.80  30 2.80   5 2.80  29 2.81  19 2.86   7 2.86
                            16 2.88  18 2.88  22 2.90  21 2.91
  21  0.748  0.250  0.503-  22 2.80  19 2.84  27 2.84  18 2.85  23 2.88  16 2.88  20 2.91  28 2.91
                             4 2.91   6 2.92  13 2.92
  22  0.502  0.250  0.747-  21 2.80  19 2.82  27 2.82  31 2.85   7 2.87  17 2.88  24 2.88   5 2.88
                            12 2.88  28 2.90  20 2.90   3 2.91
  23  0.001  0.500  0.502-  24 2.83  25 2.85   9 2.85  29 2.85  31 2.86  13 2.87  28 2.88  21 2.88
                            18 2.88   4 2.88  11 2.89  26 2.89
  24  0.248  0.500  0.749-  23 2.83  25 2.85  27 2.85  10 2.85  31 2.86  12 2.87   8 2.88   3 2.88
                            18 2.88  22 2.88  30 2.89  26 2.89
  25  0.249  0.750  0.501-  16 2.85  17 2.85  23 2.85  24 2.85  19 2.87  27 2.87   2 2.87   9 2.87
                            15 2.87  11 2.90  30 2.90  26 2.94
  26  0.993  0.750  0.757-  14 2.70   8 2.76   1 2.76  20 2.76  28 2.76  10 2.82  29 2.82  23 2.89
                            24 2.89  17 2.89  16 2.89  25 2.94
  27  0.502  0.501  0.504-  22 2.82  21 2.84  24 2.85  30 2.85  28 2.86  29 2.86  31 2.87  25 2.87
                            15 2.88  13 2.91   9 2.92
  28  0.751  0.508  0.754-  14 2.75  26 2.76   8 2.80  30 2.80  12 2.80  29 2.81  27 2.86   7 2.86
                            23 2.88  18 2.88  22 2.90  21 2.91
  29  0.752  0.750  0.504-  20 2.81  28 2.81  26 2.82  16 2.85  23 2.85  30 2.85  19 2.86  27 2.86
                            11 2.87   6 2.88  13 2.88  15 2.89
  30  0.503  0.750  0.754-   5 2.80  12 2.80  20 2.80  28 2.80  14 2.82  29 2.85  19 2.85  27 2.85
                            10 2.87  24 2.89  17 2.89  25 2.90
  31  0.251  0.250  0.499-   4 2.85  22 2.85  16 2.86  23 2.86  17 2.86  24 2.86   2 2.87   9 2.87
                            19 2.87  27 2.87  18 2.92
 
  LATTYP: Found a simple cubic cell.
 ALAT       =     8.0870400000
  
  Lattice vectors:
  
 A1 = (   8.0870400000,   0.0000000000,   0.0000000000)
 A2 = (   0.0000000000,   8.0870400000,   0.0000000000)
 A3 = (   0.0000000000,   0.0000000000,   8.0870400000)
 Subroutine PRICEL returns:
 Original cell was already a primitive cell.
 

Analysis of symmetry for initial positions (statically):

 Routine SETGRP: Setting up the symmetry group for a 
 simple cubic supercell.


 Subroutine GETGRP returns: Found  4 space group operations
 (whereof  1 operations were pure point group operations)
 out of a pool of 48 trial point group operations.


The static configuration has the point symmetry C_1 .
 The point group associated with its full space group is C_2v.

Analysis of symmetry for dynamics (positions and initial velocities):

 Subroutine DYNSYM returns: Found  4 space group operations
 (whereof  1 operations were pure point group operations)
 out of a pool of  4 trial space group operations
 (whereof  1 operations were pure point group operations)
 and found also     1 'primitive' translations


The dynamic configuration has the point symmetry C_1 .
 The point group associated with its full space group is C_2v.
 
 
 KPOINTS: Automatic kpoint scheme                 

Automatic generation of k-mesh.
 
 Subroutine IBZKPT returns following result:
 ===========================================
 
 Found      2 irreducible k-points:
 
 Following reciprocal coordinates:
            Coordinates               Weight
  0.250000  0.250000  0.250000      4.000000
 -0.250000  0.250000  0.250000      4.000000
 
 Following cartesian coordinates:
            Coordinates               Weight
  0.030914  0.030914  0.030914      4.000000
 -0.030914  0.030914  0.030914      4.000000
 


--------------------------------------------------------------------------------------------------------




 Dimension of arrays:
   k-points           NKPTS =      2   k-points in BZ     NKDIM =      2   number of bands    NBANDS=     72
   number of dos      NEDOS =    301   number of ions     NIONS =     31
   non local maximal  LDIM  =      6   non local SUM 2l+1 LMDIM =     18
   total plane-waves  NPLWV = 110592
   max r-space proj   IRMAX =      1   max aug-charges    IRDMAX=   8337
   dimension x,y,z NGX =    48 NGY =   48 NGZ =   48
   dimension x,y,z NGXF=    96 NGYF=   96 NGZF=   96
   support grid    NGXF=    96 NGYF=   96 NGZF=   96
   ions per type =              30   1
 NGX,Y,Z   is equivalent  to a cutoff of   9.87,  9.87,  9.87 a.u.
 NGXF,Y,Z  is equivalent  to a cutoff of  19.73, 19.73, 19.73 a.u.


 I would recommend the setting:
   dimension x,y,z NGX =    46 NGY =   46 NGZ =   46
 SYSTEM =  unknown system                          
 POSCAR =  Al30 Cu1                                

 Startparameter for this run:
   NWRITE =      2    write-flag & timer
   PREC   = accura    medium, high low
   ISTART =      0    job   : 0-new  1-cont  2-samecut
   ICHARG =      2    charge: 1-file 2-atom 10-const
   ISPIN  =      1    spin polarized calculation?
   LNONCOLLINEAR =      F non collinear calculations
   LSORBIT =      F    spin-orbit coupling
   INIWAV =      1    electr: 0-lowe 1-rand  2-diag
   LASPH  =      F    aspherical Exc in radial PAW
   METAGGA=      F    non-selfconsistent MetaGGA calc.

 Electronic Relaxation 1
   ENCUT  =  300.0 eV  22.05 Ry    4.70 a.u.  11.42 11.42 11.42*2*pi/ulx,y,z
   ENINI  =  300.0     initial cutoff
   ENAUG  =  516.5 eV  augmentation charge cutoff
   NELM   =     60;   NELMIN=  2; NELMDL=-12     # of ELM steps 
   EDIFF  = 0.1E-03   stopping-criterion for ELM
   LREAL  =      F    real-space projection
   LCOMPAT=      F    compatible to vasp.4.4
   LREAL_COMPAT= F    compatible to vasp.4.5.1-3
   GGA_COMPAT  = T    GGA compatible to vasp.4.4-vasp.4.6
   LMAXPAW     = -100 max onsite density
   LMAXMIX     =    2 max onsite mixed and CHGCAR
   VOSKOWN=      0    Vosko Wilk Nusair interpolation
   ROPT   =    0.00000   0.00000
 Ionic relaxation
   EDIFFG = 0.5E-01   stopping-criterion for IOM
   NSW    =    191    number of steps for IOM
   NBLOCK =      1;   KBLOCK =    191    inner block; outer block 
   IBRION =      2    ionic relax: 0-MD 1-quasi-New 2-CG
   NFREE  =      1    steps in history (QN), initial steepest desc. (CG)
   ISIF   =      2    stress and relaxation
   IWAVPR =     11    prediction:  0-non 1-charg 2-wave 3-comb
   ISYM   =      2    0-nonsym 1-usesym 2-fastsym
   LCORR  =      T    Harris-Foulkes like correction to forces

   POTIM  = 0.5000    time-step for ionic-motion
   TEIN   =    0.0    initial temperature
   TEBEG  =    0.0;   TEEND  =   0.0 temperature during run
   SMASS  =  -3.00    Nose mass-parameter (am)
   estimated Nose-frequenzy (Omega)   =  0.10E-29 period in steps =****** mass=  -0.149E-26a.u.
   NPACO  =    256;   APACO  = 16.0  distance and # of slots for P.C.
   PSTRESS=    0.0 pullay stress

  Mass of Ions in am
   POMASS =  26.98 63.55
  Ionic Valenz
   ZVAL   =   3.00 11.00
  Atomic Wigner-Seitz radii
   RWIGS  =  -1.00 -1.00
   NELECT =     101.0000    total number of electrons
   NUPDOWN=      -1.0000    fix difference up-down

 DOS related values:
   EMIN   =  10.00;   EMAX   =-10.00  energy-range for DOS
   EFERMI =   0.00
   ISMEAR =     1;   SIGMA  =   0.20  broadening in eV -4-tet -1-fermi 0-gaus

 Electronic relaxation 2 (details)
   IALGO  =     48    algorithm
   LDIAG  =      T    sub-space diagonalisation
   IMIX   =      4    mixing-type and parameters
     AMIX     =   0.40;   BMIX     =  1.00
     AMIX_MAG =   1.60;   BMIX_MAG =  1.00
     AMIN     =   0.10
     WC   =   100.;   INIMIX=   1;  MIXPRE=   1

 Intra band minimization:
   WEIMIN = 0.0010     energy-eigenvalue tresh-hold
   EBREAK =  0.38E-06  absolut break condition
   DEPER  =   0.30     relativ break condition  

   TIME   =   0.40     timestep for ELM

  volume/ion in A,a.u.               =      17.06       115.13
  Fermi-wavevector in a.u.,A,eV,Ry     =   0.942741  1.781522 12.092320  0.888760
  Thomas-Fermi vector in A             =   2.070380
 
 Write flags
   LWAVE  =      F    write WAVECAR
   LCHARG =      F    write CHGCAR
   LVTOT  =      F    write LOCPOT, local potential
   LELF   =      F    write electronic localiz. function (ELF)
   LORBIT =      0    0 simple, 1 ext, 2 COOP (PROOUT)


 Dipole corrections
   LMONO  =      F    monopole corrections only (constant potential shift)
   LDIPOL =      F    correct potential (dipole corrections)
   IDIPOL =      0    1-x, 2-y, 3-z, 4-all directions 
   EPSILON=  1.0000000 bulk dielectric constant

 Exchange correlation treatment:
   GGA     =    --    GGA type
   LEXCH   =     8    internal setting for exchange type
   VOSKOWN=      0    Vosko Wilk Nusair interpolation
   LHFCALC =     F    Hartree Fock is set to
   LHFONE  =     F    Hartree Fock one center treatment
   AEXX    =    0.0000 exact exchange contribution

 Linear response parameters
   LEPSILON=     F    determine dielectric tensor
   LRPA    =     F    only Hartree local field effects (RPA)
   LNABLA  =     F    use nabla operator in PAW spheres
   LVEL    =     F    velocity operator in full k-point grid
   LINTERFAST=   F  fast interpolation
   KINTER  =     0    interpolate to denser k-point grid
   CSHIFT  =0.1000    complex shift for real part using Kramers Kronig
   OMEGAMAX=  -1.0    maximum frequency

 Orbital magnetization related:
   ORBITALMAG=     F  switch on orbital magnetization
   LCHIMAG   =     F  perturbation theory with respect to B field



--------------------------------------------------------------------------------------------------------


 conjugate gradient relaxation of ions
 charge density and potential will be updated during run
 non-spin polarized calculation
 RMM-DIIS sequential band-by-band
 perform sub-space diagonalisation
    before iterative eigenvector-optimisation
 modified Broyden-mixing scheme, WC =      100.0
 initial mixing is a Kerker type mixing with AMIX =  0.4000 and BMIX =      1.0000
 Hartree-type preconditioning will be used
 using additional bands           21
 reciprocal scheme for non local part
 use partial core corrections
 calculate Harris-corrections to forces 
   (improved forces if not selfconsistent)
 use gradient corrections 
 use of overlap-Matrix (Vanderbilt PP)
 Methfessel and Paxton  Order N= 1 SIGMA  =   0.20


--------------------------------------------------------------------------------------------------------


  energy-cutoff  :      300.00
  volume of cell :      528.89
      direct lattice vectors                 reciprocal lattice vectors
     8.087040000  0.000000000  0.000000000     0.123654638  0.000000000  0.000000000
     0.000000000  8.087040000  0.000000000     0.000000000  0.123654638  0.000000000
     0.000000000  0.000000000  8.087040000     0.000000000  0.000000000  0.123654638

  length of vectors
     8.087040000  8.087040000  8.087040000     0.123654638  0.123654638  0.123654638


 
 k-points in units of 2pi/SCALE and weight: Automatic kpoint scheme                 
   0.03091366  0.03091366  0.03091366       0.500
  -0.03091366  0.03091366  0.03091366       0.500
 
 k-points in reciprocal lattice and weights: Automatic kpoint scheme                 
   0.25000000  0.25000000  0.25000000       0.500
  -0.25000000  0.25000000  0.25000000       0.500
 
 position of ions in fractional coordinates (direct lattice) 
   0.99582100  0.99170200  0.99889800
   0.24618400  0.99937100  0.24821200
   0.24666100  0.25000000  0.00158300
   0.00301100  0.25000000  0.24822900
   0.50326600  0.99576800  0.99663900
   0.75336100  0.99576800  0.24673400
   0.75400100  0.25000000  0.99599900
   0.99582100  0.50829800  0.99889800
   0.24618400  0.50062900  0.24821200
   0.24611500  0.75000000  0.99764700
   0.99643200  0.75000000  0.24674800
   0.50326600  0.50423200  0.99663900
   0.75336100  0.50423200  0.24673400
   0.75659200  0.75000000  0.99340800
   0.50042600  0.75000000  0.24957400
   0.00115200  0.99985600  0.50152900
   0.24847100  0.99985600  0.74884800
   0.99563900  0.25000000  0.75436100
   0.50178800  0.99937100  0.50381600
   0.75110200  0.99170200  0.75417900
   0.74841700  0.25000000  0.50333900
   0.50177100  0.25000000  0.74698900
   0.00115200  0.50014400  0.50152900
   0.24847100  0.50014400  0.74884800
   0.24946600  0.75000000  0.50053400
   0.99274400  0.75000000  0.75725600
   0.50178800  0.50062900  0.50381600
   0.75110200  0.50829800  0.75417900
   0.75235300  0.75000000  0.50388500
   0.50325200  0.75000000  0.75356800
   0.25083300  0.25000000  0.49916700
 
 position of ions in cartesian coordinates  (Angst):
   8.05324426  8.01993374  8.07812808
   1.99089986  8.08195325  2.00730037
   1.99475737  2.02176000  0.01280178
   0.02435008  2.02176000  2.00743785
   4.06993227  8.05281565  8.05985946
   6.09246054  8.05281565  1.99534773
   6.09763625  2.02176000  8.05468375
   8.05324426  4.11062626  8.07812808
   1.99089986  4.04860675  2.00730037
   1.99034185  6.06528000  8.06801119
   8.05818544  6.06528000  1.99546095
   4.06993227  4.07774435  8.05985946
   6.09246054  4.07774435  1.99534773
   6.11858977  6.06528000  8.03373023
   4.04696508  6.06528000  2.01831492
   0.00931627  8.08587547  4.05588508
   2.00939492  8.08587547  6.05596373
   8.05177242  2.02176000  6.10054758
   4.05797963  8.08195325  4.07438014
   6.07419192  8.01993374  6.09907574
   6.05247822  2.02176000  4.07052263
   4.05784215  2.02176000  6.04092992
   0.00931627  4.04468453  4.05588508
   2.00939492  4.04468453  6.05596373
   2.01744152  6.06528000  4.04783848
   8.02836044  6.06528000  6.12395956
   4.05797963  4.04860675  4.07438014
   6.07419192  4.11062626  6.09907574
   6.08430881  6.06528000  4.07493815
   4.06981905  6.06528000  6.09413456
   2.02849650  2.02176000  4.03678350
 


--------------------------------------------------------------------------------------------------------


 k-point  1 :  0.25000.25000.2500  plane waves:    6238
 k-point  2 :  -.25000.25000.2500  plane waves:    6238

 maximum and minimum number of plane-waves per node :    6238   6238

 maximum number of plane-waves:    6238
 maximal index in each direction: 
   IXMAX= 11   IYMAX= 11   IZMAX= 11
   IXMIN=-11   IYMIN=-11   IZMIN=-11

 NGX is ok and might be reduce to  46
 NGY is ok and might be reduce to  46
 NGZ is ok and might be reduce to  46

 serial   3D FFT for wavefunctions
 parallel 3D FFT for charge:
    minimum data exchange during FFTs selected (reduces bandwidth)


 total amount of memory used by VASP on root node  63028. kBytes
========================================================================

   base      :    30000. kBytes
   nonl-proj :     6689. kBytes
   fftplans  :     2983. kBytes
   grid      :    21626. kBytes
   one-center:      482. kBytes
   wavefun   :     1248. kBytes
 
 Broyden mixing: mesh for mixing (old mesh)
   NGX = 23   NGY = 23   NGZ = 23
  (NGX  = 96   NGY  = 96   NGZ  = 96)
  gives a total of  12167 points

 initial charge density was supplied:
 charge density of overlapping atoms calculated
 number of electron  101.0000000 magnetization 
 keeping initial charge density in first step


--------------------------------------------------------------------------------------------------------


 Maximum index for augmentation-charges          554 (set IRDMAX)


--------------------------------------------------------------------------------------------------------


 First call to EWALD:  gamma=   0.219
 Maximum number of real-space cells 3x 3x 3
 Maximum number of reciprocal cells 3x 3x 3

    FEWALD:  cpu time    0.01: real time    0.01
   RESPFUN:  cpu time    0.00: real time    0.00


----------------------------------------- Iteration    1(   1)  ---------------------------------------


    POTLOK:  cpu time    0.15: real time    0.15
    SETDIJ:  cpu time    0.02: real time    0.02
    EDDIAG:  cpu time    0.30: real time    0.30
  RMM-DIIS:  cpu time    0.70: real time    0.70
    ORTHCH:  cpu time    0.02: real time    0.02
       DOS:  cpu time    0.00: real time    0.00
    --------------------------------------------
      LOOP:  cpu time    1.19: real time    1.20

 eigenvalue-minimisations  :   144
 total energy-change (2. order) : 0.2995576E+03  (-0.1822867E+04)
 number of electron  101.0000000 magnetization 
 augmentation part   101.0000000 magnetization 

 Free energy of the ion-electron system (eV)
  ---------------------------------------------------
  alpha Z        PSCENC =        15.76595319
  Ewald energy   TEWEN  =     -2790.46487527
  -1/2 Hartree   DENC   =      -758.98997031
  -exchange  EXHF       =         0.00000000
  -V(xc)+E(xc)   XCENC  =      -745.12238378
  PAW double counting   =      2148.67993976    -1334.04649801
  entropy T*S    EENTRO =        -0.01211012
  eigenvalues    EBANDS =       766.67111600
  atomic energy  EATOM  =      2997.07640482
  ---------------------------------------------------
  free energy    TOTEN  =       299.55757629 eV

  energy without entropy =      299.56968641  energy(sigma->0) =      299.56161300


--------------------------------------------------------------------------------------------------------




----------------------------------------- Iteration    1(   2)  ---------------------------------------


    EDDIAG:  cpu time    0.30: real time    0.30
  RMM-DIIS:  cpu time    0.69: real time    0.69
    ORTHCH:  cpu time    0.02: real time    0.02
       DOS:  cpu time    0.00: real time    0.00
    --------------------------------------------
      LOOP:  cpu time    1.01: real time    1.02

 eigenvalue-minimisations  :   144
 total energy-change (2. order) :-0.3305979E+03  (-0.3206748E+03)
 number of electron  101.0000000 magnetization 
 augmentation part   101.0000000 magnetization 

 Free energy of the ion-electron system (eV)
  ---------------------------------------------------
  alpha Z        PSCENC =        15.76595319
  Ewald energy   TEWEN  =     -2790.46487527
  -1/2 Hartree   DENC   =      -758.98997031
  -exchange  EXHF       =         0.00000000
  -V(xc)+E(xc)   XCENC  =      -745.12238378
  PAW double counting   =      2148.67993976    -1334.04649801
  entropy T*S    EENTRO =         0.00760104
  eigenvalues    EBANDS =       436.05348326
  atomic energy  EATOM  =      2997.07640482
  ---------------------------------------------------
  free energy    TOTEN  =       -31.04034529 eV

  energy without entropy =      -31.04794633  energy(sigma->0) =      -31.04287897


--------------------------------------------------------------------------------------------------------




----------------------------------------- Iteration    1(   3)  ---------------------------------------


    EDDIAG:  cpu time    0.30: real time    0.30
  RMM-DIIS:  cpu time    0.69: real time    0.69
    ORTHCH:  cpu time    0.02: real time    0.02
       DOS:  cpu time    0.00: real time    0.00
    --------------------------------------------
      LOOP:  cpu time    1.00: real time    1.01

 eigenvalue-minimisations  :   144
 total energy-change (2. order) :-0.6158771E+02  (-0.6280341E+02)
 number of electron  101.0000000 magnetization 
 augmentation part   101.0000000 magnetization 

 Free energy of the ion-electron system (eV)
  ---------------------------------------------------
  alpha Z        PSCENC =        15.76595319
  Ewald energy   TEWEN  =     -2790.46487527
  -1/2 Hartree   DENC   =      -758.98997031
  -exchange  EXHF       =         0.00000000
  -V(xc)+E(xc)   XCENC  =      -745.12238378
  PAW double counting   =      2148.67993976    -1334.04649801
  entropy T*S    EENTRO =        -0.00329163
  eigenvalues    EBANDS =       374.47666485
  atomic energy  EATOM  =      2997.07640482
  ---------------------------------------------------
  free energy    TOTEN  =       -92.62805637 eV

  energy without entropy =      -92.62476474  energy(sigma->0) =      -92.62695916


--------------------------------------------------------------------------------------------------------




----------------------------------------- Iteration    1(   4)  ---------------------------------------


    EDDIAG:  cpu time    0.30: real time    0.30
  RMM-DIIS:  cpu time    0.69: real time    0.69
    ORTHCH:  cpu time    0.02: real time    0.02
       DOS:  cpu time    0.00: real time    0.00
    --------------------------------------------
      LOOP:  cpu time    1.01: real time    1.01

 eigenvalue-minimisations  :   144
 total energy-change (2. order) :-0.1397072E+02  (-0.1312530E+02)
 number of electron  101.0000000 magnetization 
 augmentation part   101.0000000 magnetization 

 Free energy of the ion-electron system (eV)
  ---------------------------------------------------
  alpha Z        PSCENC =        15.76595319
  Ewald energy   TEWEN  =     -2790.46487527
  -1/2 Hartree   DENC   =      -758.98997031
  -exchange  EXHF       =         0.00000000
  -V(xc)+E(xc)   XCENC  =      -745.12238378
  PAW double counting   =      2148.67993976    -1334.04649801
  entropy T*S    EENTRO =        -0.03415092
  eigenvalues    EBANDS =       360.53680089
  atomic energy  EATOM  =      2997.07640482
  ---------------------------------------------------
  free energy    TOTEN  =      -106.59877962 eV

  energy without entropy =     -106.56462870  energy(sigma->0) =     -106.58739598


--------------------------------------------------------------------------------------------------------




----------------------------------------- Iteration    1(   5)  ---------------------------------------


    EDDIAG:  cpu time    0.30: real time    0.30
  RMM-DIIS:  cpu time    0.69: real time    0.69
    ORTHCH:  cpu time    0.02: real time    0.02
       DOS:  cpu time    0.00: real time    0.00
    --------------------------------------------
      LOOP:  cpu time    1.01: real time    1.01

 eigenvalue-minimisations  :   144
 total energy-change (2. order) :-0.6818240E+01  (-0.5696852E+01)
 number of electron  101.0000000 magnetization 
 augmentation part   101.0000000 magnetization 

 Free energy of the ion-electron system (eV)
  ---------------------------------------------------
  alpha Z        PSCENC =        15.76595319
  Ewald energy   TEWEN  =     -2790.46487527
  -1/2 Hartree   DENC   =      -758.98997031
  -exchange  EXHF       =         0.00000000
  -V(xc)+E(xc)   XCENC  =      -745.12238378
  PAW double counting   =      2148.67993976    -1334.04649801
  entropy T*S    EENTRO =         0.00602363
  eigenvalues    EBANDS =       353.67838674
  atomic energy  EATOM  =      2997.07640482
  ---------------------------------------------------
  free energy    TOTEN  =      -113.41701922 eV

  energy without entropy =     -113.42304285  energy(sigma->0) =     -113.41902709


--------------------------------------------------------------------------------------------------------




----------------------------------------- Iteration    1(   6)  ---------------------------------------


    EDDIAG:  cpu time    0.30: real time    0.30
  RMM-DIIS:  cpu time    0.69: real time    0.69
    ORTHCH:  cpu time    0.02: real time    0.02
       DOS:  cpu time    0.00: real time    0.00
    --------------------------------------------
      LOOP:  cpu time    1.01: real time    1.01

 eigenvalue-minimisations  :   144
 total energy-change (2. order) :-0.3137847E+01  (-0.2520417E+01)
 number of electron  101.0000000 magnetization 
 augmentation part   101.0000000 magnetization 

 Free energy of the ion-electron system (eV)
  ---------------------------------------------------
  alpha Z        PSCENC =        15.76595319
  Ewald energy   TEWEN  =     -2790.46487527
  -1/2 Hartree   DENC   =      -758.98997031
  -exchange  EXHF       =         0.00000000
  -V(xc)+E(xc)   XCENC  =      -745.12238378
  PAW double counting   =      2148.67993976    -1334.04649801
  entropy T*S    EENTRO =         0.01930431
  eigenvalues    EBANDS =       350.52725902
  atomic energy  EATOM  =      2997.07640482
  ---------------------------------------------------
  free energy    TOTEN  =      -116.55486626 eV

  energy without entropy =     -116.57417057  energy(sigma->0) =     -116.56130103


--------------------------------------------------------------------------------------------------------




----------------------------------------- Iteration    1(   7)  ---------------------------------------


    EDDIAG:  cpu time    0.30: real time    0.30
  RMM-DIIS:  cpu time    0.70: real time    0.70
    ORTHCH:  cpu time    0.02: real time    0.02
       DOS:  cpu time    0.00: real time    0.00
    --------------------------------------------
      LOOP:  cpu time    1.02: real time    1.02

 eigenvalue-minimisations  :   144
 total energy-change (2. order) :-0.1492613E+01  (-0.1318542E+01)
 number of electron  101.0000000 magnetization 
 augmentation part   101.0000000 magnetization 

 Free energy of the ion-electron system (eV)
  ---------------------------------------------------
  alpha Z        PSCENC =        15.76595319
  Ewald energy   TEWEN  =     -2790.46487527
  -1/2 Hartree   DENC   =      -758.98997031
  -exchange  EXHF       =         0.00000000
  -V(xc)+E(xc)   XCENC  =      -745.12238378
  PAW double counting   =      2148.67993976    -1334.04649801
  entropy T*S    EENTRO =         0.03385413
  eigenvalues    EBANDS =       349.02009586
  atomic energy  EATOM  =      2997.07640482
  ---------------------------------------------------
  free energy    TOTEN  =      -118.04747960 eV

  energy without entropy =     -118.08133373  energy(sigma->0) =     -118.05876431


--------------------------------------------------------------------------------------------------------




----------------------------------------- Iteration    1(   8)  ---------------------------------------


    EDDIAG:  cpu time    0.30: real time    0.30
  RMM-DIIS:  cpu time    0.70: real time    0.70
    ORTHCH:  cpu time    0.02: real time    0.02
       DOS:  cpu time    0.00: real time    0.00
    --------------------------------------------
      LOOP:  cpu time    1.02: real time    1.02

 eigenvalue-minimisations  :   144
 total energy-change (2. order) :-0.7870778E+00  (-0.6692900E+00)
 number of electron  101.0000000 magnetization 
 augmentation part   101.0000000 magnetization 

 Free energy of the ion-electron system (eV)
  ---------------------------------------------------
  alpha Z        PSCENC =        15.76595319
  Ewald energy   TEWEN  =     -2790.46487527
  -1/2 Hartree   DENC   =      -758.98997031
  -exchange  EXHF       =         0.00000000
  -V(xc)+E(xc)   XCENC  =      -745.12238378
  PAW double counting   =      2148.67993976    -1334.04649801
  entropy T*S    EENTRO =         0.03298378
  eigenvalues    EBANDS =       348.23388843
  atomic energy  EATOM  =      2997.07640482
  ---------------------------------------------------
  free energy    TOTEN  =      -118.83455737 eV

  energy without entropy =     -118.86754116  energy(sigma->0) =     -118.84555197


--------------------------------------------------------------------------------------------------------




----------------------------------------- Iteration    1(   9)  ---------------------------------------


    EDDIAG:  cpu time    0.30: real time    0.30
  RMM-DIIS:  cpu time    1.66: real time    1.66
    ORTHCH:  cpu time    0.02: real time    0.02
       DOS:  cpu time    0.00: real time    0.00
    --------------------------------------------
      LOOP:  cpu time    1.98: real time    1.98

 eigenvalue-minimisations  :   387
 total energy-change (2. order) :-0.8092770E+00  (-0.7662397E+00)
 number of electron  101.0000000 magnetization 
 augmentation part   101.0000000 magnetization 

 Free energy of the ion-electron system (eV)
  ---------------------------------------------------
  alpha Z        PSCENC =        15.76595319
  Ewald energy   TEWEN  =     -2790.46487527
  -1/2 Hartree   DENC   =      -758.98997031
  -exchange  EXHF       =         0.00000000
  -V(xc)+E(xc)   XCENC  =      -745.12238378
  PAW double counting   =      2148.67993976    -1334.04649801
  entropy T*S    EENTRO =         0.03050904
  eigenvalues    EBANDS =       347.42708620
  atomic energy  EATOM  =      2997.07640482
  ---------------------------------------------------
  free energy    TOTEN  =      -119.64383435 eV

  energy without entropy =     -119.67434339  energy(sigma->0) =     -119.65400403


--------------------------------------------------------------------------------------------------------




----------------------------------------- Iteration    1(  10)  ---------------------------------------


    EDDIAG:  cpu time    0.30: real time    0.30
  RMM-DIIS:  cpu time    1.35: real time    1.35
    ORTHCH:  cpu time    0.02: real time    0.02
       DOS:  cpu time    0.00: real time    0.00
    --------------------------------------------
      LOOP:  cpu time    1.67: real time    1.67

 eigenvalue-minimisations  :   318
 total energy-change (2. order) :-0.6979903E-01  (-0.3134308E-01)
 number of electron  101.0000000 magnetization 
 augmentation part   101.0000000 magnetization 

 Free energy of the ion-electron system (eV)
  ---------------------------------------------------
  alpha Z        PSCENC =        15.76595319
  Ewald energy   TEWEN  =     -2790.46487527
  -1/2 Hartree   DENC   =      -758.98997031
  -exchange  EXHF       =         0.00000000
  -V(xc)+E(xc)   XCENC  =      -745.12238378
  PAW double counting   =      2148.67993976    -1334.04649801
  entropy T*S    EENTRO =         0.02883932
  eigenvalues    EBANDS =       347.35895689
  atomic energy  EATOM  =      2997.07640482
  ---------------------------------------------------
  free energy    TOTEN  =      -119.71363338 eV

  energy without entropy =     -119.74247270  energy(sigma->0) =     -119.72324649


--------------------------------------------------------------------------------------------------------




----------------------------------------- Iteration    1(  11)  ---------------------------------------


    EDDIAG:  cpu time    0.30: real time    0.30
  RMM-DIIS:  cpu time    1.11: real time    1.11
    ORTHCH:  cpu time    0.02: real time    0.02
       DOS:  cpu time    0.00: real time    0.00
    --------------------------------------------
      LOOP:  cpu time    1.43: real time    1.43

 eigenvalue-minimisations  :   250
 total energy-change (2. order) :-0.3869644E-02  (-0.1338173E-02)
 number of electron  101.0000000 magnetization 
 augmentation part   101.0000000 magnetization 

 Free energy of the ion-electron system (eV)
  ---------------------------------------------------
  alpha Z        PSCENC =        15.76595319
  Ewald energy   TEWEN  =     -2790.46487527
  -1/2 Hartree   DENC   =      -758.98997031
  -exchange  EXHF       =         0.00000000
  -V(xc)+E(xc)   XCENC  =      -745.12238378
  PAW double counting   =      2148.67993976    -1334.04649801
  entropy T*S    EENTRO =         0.02871198
  eigenvalues    EBANDS =       347.35521459
  atomic energy  EATOM  =      2997.07640482
  ---------------------------------------------------
  free energy    TOTEN  =      -119.71750303 eV

  energy without entropy =     -119.74621500  energy(sigma->0) =     -119.72707368


--------------------------------------------------------------------------------------------------------




----------------------------------------- Iteration    1(  12)  ---------------------------------------


    EDDIAG:  cpu time    0.30: real time    0.30
  RMM-DIIS:  cpu time    0.97: real time    0.97
    ORTHCH:  cpu time    0.02: real time    0.02
       DOS:  cpu time    0.00: real time    0.00
    CHARGE:  cpu time    0.19: real time    0.19
    MIXING:  cpu time    0.00: real time    0.00
    --------------------------------------------
      LOOP:  cpu time    1.48: real time    1.48

 eigenvalue-minimisations  :   212
 total energy-change (2. order) :-0.7369961E-04  (-0.3081923E-04)
 number of electron  100.9999968 magnetization 
 augmentation part     3.2644413 magnetization 

 Broyden mixing:
  rms(total) = 0.29881E+01    rms(broyden)= 0.29880E+01
  rms(prec ) = 0.51152E+01
  weight for this iteration     100.00

 Free energy of the ion-electron system (eV)
  ---------------------------------------------------
  alpha Z        PSCENC =        15.76595319
  Ewald energy   TEWEN  =     -2790.46487527
  -1/2 Hartree   DENC   =      -758.98997031
  -exchange  EXHF       =         0.00000000
  -V(xc)+E(xc)   XCENC  =      -745.12238378
  PAW double counting   =      2148.67993976    -1334.04649801
  entropy T*S    EENTRO =         0.02896249
  eigenvalues    EBANDS =       347.35489037
  atomic energy  EATOM  =      2997.07640482
  ---------------------------------------------------
  free energy    TOTEN  =      -119.71757672 eV

  energy without entropy =     -119.74653922  energy(sigma->0) =     -119.72723089


--------------------------------------------------------------------------------------------------------




----------------------------------------- Iteration    1(  13)  ---------------------------------------


    POTLOK:  cpu time    0.15: real time    0.15
    SETDIJ:  cpu time    0.02: real time    0.02
    EDDIAG:  cpu time    0.30: real time    0.30
  RMM-DIIS:  cpu time    1.81: real time    1.81
    ORTHCH:  cpu time    0.02: real time    0.02
       DOS:  cpu time    0.00: real time    0.00
    CHARGE:  cpu time    0.18: real time    0.18
    MIXING:  cpu time    0.00: real time    0.00
    --------------------------------------------
      LOOP:  cpu time    2.48: real time    2.48

 eigenvalue-minimisations  :   414
 total energy-change (2. order) :-0.3658105E+02  (-0.4146765E+02)
 number of electron  100.9999941 magnetization 
 augmentation part     7.4867331 magnetization 

 Broyden mixing:
  rms(total) = 0.24173E+01    rms(broyden)= 0.24166E+01
  rms(prec ) = 0.41118E+01
  weight for this iteration     100.00

 eigenvalues of (default mixing * dielectric matrix)
  average eigenvalue GAMMA=   0.5539
  0.5539

 Free energy of the ion-electron system (eV)
  ---------------------------------------------------
  alpha Z        PSCENC =        15.76595319
  Ewald energy   TEWEN  =     -2790.46487527
  -1/2 Hartree   DENC   =      -592.44263451
  -exchange  EXHF       =         0.00000000
  -V(xc)+E(xc)   XCENC  =      -749.69690931
  PAW double counting   =      1867.24499841    -1010.31316266
  entropy T*S    EENTRO =        -0.02194220
  eigenvalues    EBANDS =       106.55354572
  atomic energy  EATOM  =      2997.07640482
  ---------------------------------------------------
  free energy    TOTEN  =      -156.29862181 eV

  energy without entropy =     -156.27667961  energy(sigma->0) =     -156.29130774


--------------------------------------------------------------------------------------------------------




----------------------------------------- Iteration    1(  14)  ---------------------------------------


    POTLOK:  cpu time    0.15: real time    0.15
    SETDIJ:  cpu time    0.01: real time    0.02
    EDDIAG:  cpu time    0.30: real time    0.30
  RMM-DIIS:  cpu time    1.21: real time    1.21
    ORTHCH:  cpu time    0.02: real time    0.02
       DOS:  cpu time    0.00: real time    0.00
    CHARGE:  cpu time    0.19: real time    0.19
    MIXING:  cpu time    0.00: real time    0.00
    --------------------------------------------
      LOOP:  cpu time    1.89: real time    1.89

 eigenvalue-minimisations  :   288
 total energy-change (2. order) : 0.3283211E+02  (-0.6691390E+01)
 number of electron  100.9999944 magnetization 
 augmentation part     7.0005582 magnetization 

 Broyden mixing:
  rms(total) = 0.13818E+01    rms(broyden)= 0.13818E+01
  rms(prec ) = 0.23189E+01
  weight for this iteration     100.00

 eigenvalues of (default mixing * dielectric matrix)
  average eigenvalue GAMMA=   0.9172
  0.9172  0.9172

 Free energy of the ion-electron system (eV)
  ---------------------------------------------------
  alpha Z        PSCENC =        15.76595319
  Ewald energy   TEWEN  =     -2790.46487527
  -1/2 Hartree   DENC   =      -663.94642193
  -exchange  EXHF       =         0.00000000
  -V(xc)+E(xc)   XCENC  =      -746.89778906
  PAW double counting   =      2007.27060888    -1181.84931007
  entropy T*S    EENTRO =        -0.01991947
  eigenvalues    EBANDS =       239.59883726
  atomic energy  EATOM  =      2997.07640482
  ---------------------------------------------------
  free energy    TOTEN  =      -123.46651165 eV

  energy without entropy =     -123.44659218  energy(sigma->0) =     -123.45987183


--------------------------------------------------------------------------------------------------------




----------------------------------------- Iteration    1(  15)  ---------------------------------------


    POTLOK:  cpu time    0.15: real time    0.15
    SETDIJ:  cpu time    0.02: real time    0.02
    EDDIAG:  cpu time    0.30: real time    0.30
  RMM-DIIS:  cpu time    1.23: real time    1.23
    ORTHCH:  cpu time    0.02: real time    0.02
       DOS:  cpu time    0.00: real time    0.00
    CHARGE:  cpu time    0.19: real time    0.19
    MIXING:  cpu time    0.00: real time    0.00
    --------------------------------------------
      LOOP:  cpu time    1.91: real time    1.91

 eigenvalue-minimisations  :   288
 total energy-change (2. order) : 0.8685930E+01  (-0.4087638E+01)
 number of electron  100.9999952 magnetization 
 augmentation part     5.7689580 magnetization 

 Broyden mixing:
  rms(total) = 0.35131E+00    rms(broyden)= 0.35073E+00
  rms(prec ) = 0.53870E+00
  weight for this iteration     100.00

 eigenvalues of (default mixing * dielectric matrix)
  average eigenvalue GAMMA=   1.2054
  1.9988  0.8087  0.8087

 Free energy of the ion-electron system (eV)
  ---------------------------------------------------
  alpha Z        PSCENC =        15.76595319
  Ewald energy   TEWEN  =     -2790.46487527
  -1/2 Hartree   DENC   =      -728.37653352
  -exchange  EXHF       =         0.00000000
  -V(xc)+E(xc)   XCENC  =      -744.09112918
  PAW double counting   =      2129.19643444    -1323.20928751
  entropy T*S    EENTRO =         0.00752202
  eigenvalues    EBANDS =       329.31492927
  atomic energy  EATOM  =      2997.07640482
  ---------------------------------------------------
  free energy    TOTEN  =      -114.78058173 eV

  energy without entropy =     -114.78810375  energy(sigma->0) =     -114.78308907


--------------------------------------------------------------------------------------------------------




----------------------------------------- Iteration    1(  16)  ---------------------------------------


    POTLOK:  cpu time    0.15: real time    0.15
    SETDIJ:  cpu time    0.02: real time    0.02
    EDDIAG:  cpu time    0.30: real time    0.30
  RMM-DIIS:  cpu time    1.29: real time    1.29
    ORTHCH:  cpu time    0.02: real time    0.02
       DOS:  cpu time    0.00: real time    0.00
    CHARGE:  cpu time    0.19: real time    0.19
    MIXING:  cpu time    0.00: real time    0.00
    --------------------------------------------
      LOOP:  cpu time    1.97: real time    1.97

 eigenvalue-minimisations  :   301
 total energy-change (2. order) :-0.1019816E+00  (-0.1020916E+00)
 number of electron  100.9999950 magnetization 
 augmentation part     6.0455984 magnetization 

 Broyden mixing:
  rms(total) = 0.78898E-01    rms(broyden)= 0.78870E-01
  rms(prec ) = 0.11247E+00
  weight for this iteration     100.00

 eigenvalues of (default mixing * dielectric matrix)
  average eigenvalue GAMMA=   1.3061
  2.4550  1.2329  0.7683  0.7683

 Free energy of the ion-electron system (eV)
  ---------------------------------------------------
  alpha Z        PSCENC =        15.76595319
  Ewald energy   TEWEN  =     -2790.46487527
  -1/2 Hartree   DENC   =      -726.46255535
  -exchange  EXHF       =         0.00000000
  -V(xc)+E(xc)   XCENC  =      -743.54558656
  PAW double counting   =      2135.87004082    -1326.37030196
  entropy T*S    EENTRO =         0.00590040
  eigenvalues    EBANDS =       323.24245655
  atomic energy  EATOM  =      2997.07640482
  ---------------------------------------------------
  free energy    TOTEN  =      -114.88256336 eV

  energy without entropy =     -114.88846376  energy(sigma->0) =     -114.88453016


--------------------------------------------------------------------------------------------------------




----------------------------------------- Iteration    1(  17)  ---------------------------------------


    POTLOK:  cpu time    0.15: real time    0.15
    SETDIJ:  cpu time    0.01: real time    0.02
    EDDIAG:  cpu time    0.31: real time    0.31
  RMM-DIIS:  cpu time    1.34: real time    1.34
    ORTHCH:  cpu time    0.02: real time    0.02
       DOS:  cpu time    0.00: real time    0.00
    CHARGE:  cpu time    0.19: real time    0.21
    MIXING:  cpu time    0.00: real time    0.00
    --------------------------------------------
      LOOP:  cpu time    2.03: real time    2.05

 eigenvalue-minimisations  :   310
 total energy-change (2. order) : 0.2291573E-01  (-0.8028299E-02)
 number of electron  100.9999950 magnetization 
 augmentation part     6.0801540 magnetization 

 Broyden mixing:
  rms(total) = 0.39978E-01    rms(broyden)= 0.39976E-01
  rms(prec ) = 0.58544E-01
  weight for this iteration     100.00

 eigenvalues of (default mixing * dielectric matrix)
  average eigenvalue GAMMA=   1.2868
  2.5753  0.7699  0.7699  1.1594  1.1594

 Free energy of the ion-electron system (eV)
  ---------------------------------------------------
  alpha Z        PSCENC =        15.76595319
  Ewald energy   TEWEN  =     -2790.46487527
  -1/2 Hartree   DENC   =      -728.94843374
  -exchange  EXHF       =         0.00000000
  -V(xc)+E(xc)   XCENC  =      -743.11056386
  PAW double counting   =      2145.59211031    -1332.97894871
  entropy T*S    EENTRO =         0.00580062
  eigenvalues    EBANDS =       322.20290500
  atomic energy  EATOM  =      2997.07640482
  ---------------------------------------------------
  free energy    TOTEN  =      -114.85964763 eV

  energy without entropy =     -114.86544825  energy(sigma->0) =     -114.86158117


--------------------------------------------------------------------------------------------------------




----------------------------------------- Iteration    1(  18)  ---------------------------------------


    POTLOK:  cpu time    0.15: real time    0.15
    SETDIJ:  cpu time    0.01: real time    0.02
    EDDIAG:  cpu time    0.30: real time    0.30
  RMM-DIIS:  cpu time    1.22: real time    1.23
    ORTHCH:  cpu time    0.02: real time    0.02
       DOS:  cpu time    0.00: real time    0.00
    CHARGE:  cpu time    0.19: real time    0.19
    MIXING:  cpu time    0.00: real time    0.01
    --------------------------------------------
      LOOP:  cpu time    1.90: real time    1.90

 eigenvalue-minimisations  :   288
 total energy-change (2. order) :-0.2315833E-01  (-0.7854942E-02)
 number of electron  100.9999949 magnetization 
 augmentation part     6.1522704 magnetization 

 Broyden mixing:
  rms(total) = 0.11229E+00    rms(broyden)= 0.11228E+00
  rms(prec ) = 0.17690E+00
  weight for this iteration     100.00

 eigenvalues of (default mixing * dielectric matrix)
  average eigenvalue GAMMA=   1.4752
  2.6131  2.5974  0.7820  0.7820  1.1914  0.8854

 Free energy of the ion-electron system (eV)
  ---------------------------------------------------
  alpha Z        PSCENC =        15.76595319
  Ewald energy   TEWEN  =     -2790.46487527
  -1/2 Hartree   DENC   =      -727.77968064
  -exchange  EXHF       =         0.00000000
  -V(xc)+E(xc)   XCENC  =      -743.06868468
  PAW double counting   =      2143.67867226    -1329.50372807
  entropy T*S    EENTRO =         0.00466214
  eigenvalues    EBANDS =       319.40847028
  atomic energy  EATOM  =      2997.07640482
  ---------------------------------------------------
  free energy    TOTEN  =      -114.88280597 eV

  energy without entropy =     -114.88746811  energy(sigma->0) =     -114.88436001


--------------------------------------------------------------------------------------------------------




----------------------------------------- Iteration    1(  19)  ---------------------------------------


    POTLOK:  cpu time    0.15: real time    0.15
    SETDIJ:  cpu time    0.02: real time    0.02
    EDDIAG:  cpu time    0.30: real time    0.30
  RMM-DIIS:  cpu time    1.23: real time    1.23
    ORTHCH:  cpu time    0.02: real time    0.02
       DOS:  cpu time    0.00: real time    0.00
    CHARGE:  cpu time    0.19: real time    0.19
    MIXING:  cpu time    0.01: real time    0.00
    --------------------------------------------
      LOOP:  cpu time    1.91: real time    1.91

 eigenvalue-minimisations  :   288
 total energy-change (2. order) : 0.1635374E-01  (-0.2473596E-01)
 number of electron  100.9999950 magnetization 
 augmentation part     6.0017358 magnetization 

 Broyden mixing:
  rms(total) = 0.72297E-01    rms(broyden)= 0.72277E-01
  rms(prec ) = 0.10876E+00
  weight for this iteration     100.00

 eigenvalues of (default mixing * dielectric matrix)
  average eigenvalue GAMMA=   1.2724
  2.5848  2.2201  1.1507  0.7790  0.7790  0.8507  0.5421

 Free energy of the ion-electron system (eV)
  ---------------------------------------------------
  alpha Z        PSCENC =        15.76595319
  Ewald energy   TEWEN  =     -2790.46487527
  -1/2 Hartree   DENC   =      -732.79133732
  -exchange  EXHF       =         0.00000000
  -V(xc)+E(xc)   XCENC  =      -742.83585467
  PAW double counting   =      2151.25375265    -1337.73316380
  entropy T*S    EENTRO =         0.00601045
  eigenvalues    EBANDS =       324.85665771
  atomic energy  EATOM  =      2997.07640482
  ---------------------------------------------------
  free energy    TOTEN  =      -114.86645222 eV

  energy without entropy =     -114.87246268  energy(sigma->0) =     -114.86845571


--------------------------------------------------------------------------------------------------------




----------------------------------------- Iteration    1(  20)  ---------------------------------------


    POTLOK:  cpu time    0.15: real time    0.15
    SETDIJ:  cpu time    0.01: real time    0.02
    EDDIAG:  cpu time    0.30: real time    0.30
  RMM-DIIS:  cpu time    1.22: real time    1.22
    ORTHCH:  cpu time    0.02: real time    0.02
       DOS:  cpu time    0.00: real time    0.00
    CHARGE:  cpu time    0.19: real time    0.19
    MIXING:  cpu time    0.00: real time    0.00
    --------------------------------------------
      LOOP:  cpu time    1.89: real time    1.90

 eigenvalue-minimisations  :   276
 total energy-change (2. order) : 0.7700075E-02  (-0.9260175E-03)
 number of electron  100.9999950 magnetization 
 augmentation part     6.0340080 magnetization 

 Broyden mixing:
  rms(total) = 0.32512E-01    rms(broyden)= 0.32512E-01
  rms(prec ) = 0.49882E-01
  weight for this iteration     100.00

 eigenvalues of (default mixing * dielectric matrix)
  average eigenvalue GAMMA=   1.3036
  2.6080  2.3382  1.1518  0.9044  0.8000  0.8000  0.9131  0.9131

 Free energy of the ion-electron system (eV)
  ---------------------------------------------------
  alpha Z        PSCENC =        15.76595319
  Ewald energy   TEWEN  =     -2790.46487527
  -1/2 Hartree   DENC   =      -731.85016044
  -exchange  EXHF       =         0.00000000
  -V(xc)+E(xc)   XCENC  =      -742.88023721
  PAW double counting   =      2149.91902020    -1336.20188174
  entropy T*S    EENTRO =         0.00595981
  eigenvalues    EBANDS =       323.77106450
  atomic energy  EATOM  =      2997.07640482
  ---------------------------------------------------
  free energy    TOTEN  =      -114.85875215 eV

  energy without entropy =     -114.86471196  energy(sigma->0) =     -114.86073875


--------------------------------------------------------------------------------------------------------




----------------------------------------- Iteration    1(  21)  ---------------------------------------


    POTLOK:  cpu time    0.15: real time    0.15
    SETDIJ:  cpu time    0.01: real time    0.02
    EDDIAG:  cpu time    0.30: real time    0.30
  RMM-DIIS:  cpu time    1.19: real time    1.19
    ORTHCH:  cpu time    0.02: real time    0.02
       DOS:  cpu time    0.00: real time    0.00
    CHARGE:  cpu time    0.19: real time    0.19
    MIXING:  cpu time    0.01: real time    0.01
    --------------------------------------------
      LOOP:  cpu time    1.87: real time    1.87

 eigenvalue-minimisations  :   274
 total energy-change (2. order) : 0.2161154E-02  (-0.8903350E-03)
 number of electron  100.9999950 magnetization 
 augmentation part     6.0611211 magnetization 

 Broyden mixing:
  rms(total) = 0.89465E-03    rms(broyden)= 0.82019E-03
  rms(prec ) = 0.21048E-02
  weight for this iteration     100.00

 eigenvalues of (default mixing * dielectric matrix)
  average eigenvalue GAMMA=   1.3088
  2.6223  2.4230  1.0474  1.0474  1.2599  0.7937  0.7937  0.9626  0.8295

 Free energy of the ion-electron system (eV)
  ---------------------------------------------------
  alpha Z        PSCENC =        15.76595319
  Ewald energy   TEWEN  =     -2790.46487527
  -1/2 Hartree   DENC   =      -731.14583497
  -exchange  EXHF       =         0.00000000
  -V(xc)+E(xc)   XCENC  =      -742.90462321
  PAW double counting   =      2148.66686618    -1334.70237612
  entropy T*S    EENTRO =         0.00579264
  eigenvalues    EBANDS =       322.84610174
  atomic energy  EATOM  =      2997.07640482
  ---------------------------------------------------
  free energy    TOTEN  =      -114.85659099 eV

  energy without entropy =     -114.86238364  energy(sigma->0) =     -114.85852187


--------------------------------------------------------------------------------------------------------




----------------------------------------- Iteration    1(  22)  ---------------------------------------


    POTLOK:  cpu time    0.15: real time    0.15
    SETDIJ:  cpu time    0.01: real time    0.02
    EDDIAG:  cpu time    0.30: real time    0.30
  RMM-DIIS:  cpu time    0.89: real time    0.89
    ORTHCH:  cpu time    0.02: real time    0.02
       DOS:  cpu time    0.00: real time    0.00
    --------------------------------------------
      LOOP:  cpu time    1.38: real time    1.38

 eigenvalue-minimisations  :   190
 total energy-change (2. order) :-0.2005412E-04  (-0.1566546E-04)
 number of electron  100.9999950 magnetization 
 augmentation part     6.0611211 magnetization 

 Free energy of the ion-electron system (eV)
  ---------------------------------------------------
  alpha Z        PSCENC =        15.76595319
  Ewald energy   TEWEN  =     -2790.46487527
  -1/2 Hartree   DENC   =      -731.18808241
  -exchange  EXHF       =         0.00000000
  -V(xc)+E(xc)   XCENC  =      -742.90015995
  PAW double counting   =      2148.64827446    -1334.67739884
  entropy T*S    EENTRO =         0.00574659
  eigenvalues    EBANDS =       322.87752636
  atomic energy  EATOM  =      2997.07640482
  ---------------------------------------------------
  free energy    TOTEN  =      -114.85661105 eV

  energy without entropy =     -114.86235764  energy(sigma->0) =     -114.85852658


--------------------------------------------------------------------------------------------------------




 average (electrostatic) potential at core
  the test charge radii are     1.0406  1.0053
  (the norm of the test charge is              1.0000)
       1 -73.2127       2 -73.2514       3 -73.1782       4 -73.2673       5 -73.1870
       6 -73.1870       7 -73.1625       8 -73.2127       9 -73.2514      10 -73.2227
      11 -73.2214      12 -73.1870      13 -73.1870      14 -73.1130      15 -73.3080
      16 -73.2233      17 -73.2233      18 -73.1653      19 -73.2514      20 -73.2127
      21 -73.1782      22 -73.2673      23 -73.2233      24 -73.2233      25 -73.2243
      26 -72.9914      27 -73.2514      28 -73.2127      29 -73.2227      30 -73.2214
      31 -36.5708
 
 
 
 E-fermi :   7.7387     XC(G=0): -10.0630     alpha+bet :-14.1381
   add alpha+bet to get absolut eigen values

 k-point   1 :       0.2500    0.2500    0.2500
  band No.  band energies     occupation 
      1      -3.1552      2.00000
      2      -2.1060      2.00000
      3      -1.9858      2.00000
      4      -1.8435      2.00000
      5      -0.9478      2.00000
      6      -0.8259      2.00000
      7      -0.6130      2.00000
      8       0.0982      2.00000
      9       0.2038      2.00000
     10       0.3392      2.00000
     11       0.5404      2.00000
     12       1.2360      2.00000
     13       1.2648      2.00000
     14       1.3105      2.00000
     15       1.4393      2.00000
     16       1.4810      2.00000
     17       1.7931      2.00000
     18       2.5071      2.00000
     19       2.5832      2.00000
     20       2.7430      2.00000
     21       3.3391      2.00000
     22       3.3730      2.00000
     23       3.4433      2.00000
     24       3.4894      2.00000
     25       3.5541      2.00000
     26       3.7532      2.00000
     27       3.9610      2.00000
     28       4.0703      2.00000
     29       4.2121      2.00000
     30       4.2937      2.00000
     31       4.3756      2.00000
     32       4.4718      2.00000
     33       4.6300      2.00000
     34       4.6894      2.00000
     35       4.7757      2.00000
     36       4.8167      2.00000
     37       4.9316      2.00000
     38       4.9543      2.00000
     39       5.0475      2.00000
     40       5.3867      2.00000
     41       5.7006      2.00000
     42       6.0093      2.00000
     43       6.2733      2.00000
     44       6.6204      2.00000
     45       6.7003      2.00000
     46       6.7663      2.00000
     47       6.9235      2.00000
     48       6.9578      2.00000
     49       7.0029      2.00000
     50       7.0767      2.00003
     51       7.7531      0.87823
     52       7.8774      0.08470
     53       7.9665     -0.06837
     54       7.9730     -0.06998
     55       8.0110     -0.06617
     56       8.1168     -0.02242
     57       8.1457     -0.01427
     58       8.1818     -0.00750
     59       8.2488     -0.00184
     60       9.0089      0.00000
     61       9.0938      0.00000
     62       9.1265      0.00000
     63       9.3162      0.00000
     64       9.3892      0.00000
     65       9.3999      0.00000
     66       9.8477      0.00000
     67       9.8939      0.00000
     68       9.9758      0.00000
     69      10.0093      0.00000
     70      10.0827      0.00000
     71      10.1471      0.00000
     72      10.5961      0.00000

 k-point   2 :      -0.2500    0.2500    0.2500
  band No.  band energies     occupation 
      1      -3.1546      2.00000
      2      -2.0895      2.00000
      3      -2.0105      2.00000
      4      -1.8421      2.00000
      5      -0.9404      2.00000
      6      -0.8742      2.00000
      7      -0.5292      2.00000
      8       0.1263      2.00000
      9       0.1861      2.00000
     10       0.3332      2.00000
     11       0.4997      2.00000
     12       1.1958      2.00000
     13       1.2520      2.00000
     14       1.2584      2.00000
     15       1.3805      2.00000
     16       1.6157      2.00000
     17       1.8018      2.00000
     18       2.5519      2.00000
     19       2.5571      2.00000
     20       2.7475      2.00000
     21       3.3384      2.00000
     22       3.3673      2.00000
     23       3.4377      2.00000
     24       3.5148      2.00000
     25       3.5373      2.00000
     26       3.8253      2.00000
     27       3.9629      2.00000
     28       4.0994      2.00000
     29       4.2059      2.00000
     30       4.2421      2.00000
     31       4.4070      2.00000
     32       4.4863      2.00000
     33       4.5840      2.00000
     34       4.6492      2.00000
     35       4.7918      2.00000
     36       4.8122      2.00000
     37       4.9119      2.00000
     38       5.0208      2.00000
     39       5.1028      2.00000
     40       5.3181      2.00000
     41       5.6877      2.00000
     42       5.8479      2.00000
     43       6.4182      2.00000
     44       6.6102      2.00000
     45       6.6738      2.00000
     46       6.6867      2.00000
     47       6.9270      2.00000
     48       6.9298      2.00000
     49       6.9911      2.00000
     50       7.0498      2.00001
     51       7.7439      0.95641
     52       7.8008      0.50184
     53       7.9170     -0.01979
     54       7.9699     -0.06932
     55       8.0203     -0.06296
     56       8.1396     -0.01576
     57       8.2358     -0.00247
     58       8.3135     -0.00037
     59       8.5125      0.00000
     60       8.9492      0.00000
     61       9.0391      0.00000
     62       9.0854      0.00000
     63       9.2735      0.00000
     64       9.3321      0.00000
     65       9.4210      0.00000
     66       9.8780      0.00000
     67       9.9301      0.00000
     68       9.9737      0.00000
     69       9.9964      0.00000
     70      10.1913      0.00000
     71      10.3877      0.00000
     72      10.6855      0.00000


--------------------------------------------------------------------------------------------------------


 soft charge-density along one line, spin component           1
         0         1         2         3         4         5         6         7         8         9
 total charge-density along one line
 
 pseudopotential strength for first ion, spin component:           1
  8.466  -0.005   0.000   0.000   0.000   0.000   0.000   0.000
 -0.005   0.000   0.000   0.000   0.000   0.000   0.000   0.000
  0.000   0.000   1.988   0.000   0.000  -0.025   0.000   0.000
  0.000   0.000   0.000   1.988   0.000   0.000  -0.025   0.000
  0.000   0.000   0.000   0.000   1.988   0.000   0.000  -0.025
  0.000   0.000  -0.025   0.000   0.000  -0.012   0.000   0.000
  0.000   0.000   0.000  -0.025   0.000   0.000  -0.012   0.000
  0.000   0.000   0.000   0.000  -0.025   0.000   0.000  -0.012
 total augmentation occupancy for first ion, spin component:           1
  1.306  -0.535  -0.020  -0.002  -0.009   0.018   0.003   0.009
 -0.535   0.513   0.026   0.000   0.016  -0.014  -0.002  -0.008
 -0.020   0.026   0.755   0.001   0.004  -0.190   0.000  -0.001
 -0.002   0.000   0.001   0.746   0.001  -0.001  -0.189  -0.001
 -0.009   0.016   0.004   0.001   0.756  -0.001  -0.001  -0.190
  0.018  -0.014  -0.190  -0.001  -0.001   0.054   0.000   0.001
  0.003  -0.002   0.000  -0.189  -0.001   0.000   0.053   0.001
  0.009  -0.008  -0.001  -0.001  -0.190   0.001   0.001   0.054


------------------------ aborting loop because EDIFF is reached ----------------------------------------




--------------------------------------------------------------------------------------------------------



  FREE ENERGIE OF THE ION-ELECTRON SYSTEM (eV)
  ---------------------------------------------------
  free  energy   TOTEN  =      -114.856611 eV

  energy  without entropy=     -114.862358  energy(sigma->0) =     -114.858527
 
    CHARGE:  cpu time    0.19: real time    0.19
    FORLOC:  cpu time    0.04: real time    0.04
    FORNL :  cpu time    0.48: real time    0.48
    STRESS:  cpu time    1.08: real time    1.08
    FORCOR:  cpu time    0.17: real time    0.17
    FORHAR:  cpu time    0.07: real time    0.07
    MIXING:  cpu time    0.01: real time    0.01

  FORCE on cell =-STRESS in cart. coord.  units (eV):
  Direction    XX          YY          ZZ          XY          YZ          ZX
  --------------------------------------------------------------------------------------
  Alpha Z    15.76595    15.76595    15.76595
  Ewald    -956.39290  -877.68961  -956.39290     0.00000     0.00000    50.85138
  Hartree   224.21161   282.60119   224.21161     0.00000     0.00000    32.65714
  E(xc)    -317.89608  -317.81383  -317.89607     0.00000     0.00000     0.08257
  Local     -47.49789  -184.08581   -47.49789     0.00000     0.00000   -83.03397
  n-local   528.93730   528.28234   528.93759    -0.19490    -0.93704    -0.60672
  augment    25.96119    25.81564    25.96121    -0.00001    -0.00001    -0.19748
  Kinetic   522.02234   523.11753   522.02265     2.09168     2.34473    -1.81827
  Fock        0.00000     0.00000     0.00000     0.00000     0.00000     0.00000
  -------------------------------------------------------------------------------------
  Total      -4.88816    -4.00660    -4.88816     0.00000     0.00000    -2.06533
  in kB     -14.80769   -12.13717   -14.80769     0.00000     0.00000    -6.25650
  external pressure =      -13.92 kB  Pullay stress =        0.00 kB


 VOLUME and BASIS-vectors are now :
 -----------------------------------------------------------------------------
  energy-cutoff  :      300.00
  volume of cell :      528.89
      direct lattice vectors                 reciprocal lattice vectors
     8.087040000  0.000000000  0.000000000     0.123654638  0.000000000  0.000000000
     0.000000000  8.087040000  0.000000000     0.000000000  0.123654638  0.000000000
     0.000000000  0.000000000  8.087040000     0.000000000  0.000000000  0.123654638

  length of vectors
     8.087040000  8.087040000  8.087040000     0.123654638  0.123654638  0.123654638


 FORCES acting on ions
    electron-ion (+dipol)            ewald-force                    non-local-force                 convergence-correction
 -----------------------------------------------------------------------------------------------
   0.262E+01 -.166E+01 -.346E+01   -.292E+01 0.979E+00 0.323E+01   0.525E+00 0.104E+01 0.166E+00   -.879E-03 0.679E-03 0.653E-03
   -.113E+02 0.149E+02 0.238E+02   0.110E+02 -.151E+02 -.240E+02   0.596E+00 0.523E+00 0.420E+00   0.760E-03 0.168E-02 -.838E-04
   -.113E+02 0.481E-13 -.829E+01   0.111E+02 0.174E-11 0.837E+01   0.419E+00 0.000E+00 -.860E-01   0.935E-03 0.188E-14 0.617E-03
   0.261E+02 0.639E-13 0.239E+02   -.260E+02 0.292E-13 -.241E+02   -.106E+00 0.000E+00 0.464E+00   -.249E-03 -.376E-14 0.915E-04
   -.294E+01 -.646E+01 -.115E+02   0.321E+01 0.624E+01 0.114E+02   -.433E+00 0.579E+00 0.438E+00   0.963E-03 0.104E-02 0.886E-03
   0.115E+02 -.646E+01 0.294E+01   -.114E+02 0.624E+01 -.321E+01   -.438E+00 0.579E+00 0.433E+00   -.885E-03 0.104E-02 -.965E-03
   0.115E+02 -.104E-12 -.115E+02   -.113E+02 -.825E-12 0.113E+02   -.511E+00 0.000E+00 0.511E+00   -.111E-02 0.469E-14 0.111E-02
   0.262E+01 0.166E+01 -.346E+01   -.292E+01 -.979E+00 0.323E+01   0.525E+00 -.104E+01 0.166E+00   -.879E-03 -.679E-03 0.653E-03
   -.113E+02 -.149E+02 0.238E+02   0.110E+02 0.151E+02 -.240E+02   0.596E+00 -.523E+00 0.420E+00   0.760E-03 -.168E-02 -.838E-04
   -.528E+01 -.163E-12 -.339E+01   0.499E+01 -.709E-14 0.315E+01   0.438E+00 0.434E-18 0.177E+00   0.579E-03 -.155E-14 0.451E-03
   0.358E+01 0.793E-13 0.168E+01   -.390E+01 0.631E-15 -.195E+01   0.438E+00 0.000E+00 0.584E+00   -.987E-03 0.176E-14 -.818E-03
   -.294E+01 0.646E+01 -.115E+02   0.321E+01 -.624E+01 0.114E+02   -.433E+00 -.579E+00 0.438E+00   0.963E-03 -.104E-02 0.886E-03
   0.115E+02 0.646E+01 0.294E+01   -.114E+02 -.624E+01 -.321E+01   -.438E+00 -.579E+00 0.433E+00   -.885E-03 -.104E-02 -.965E-03
   0.698E+01 0.663E-13 -.698E+01   -.628E+01 0.490E-15 0.628E+01   -.108E+01 0.000E+00 0.108E+01   -.719E-03 -.413E-14 0.720E-03
   -.440E+01 0.220E-13 0.440E+01   0.462E+01 0.569E-14 -.462E+01   -.197E+00 0.000E+00 0.197E+00   0.941E-03 -.784E-14 -.943E-03
   0.247E+02 0.213E+02 0.286E+01   -.247E+02 -.215E+02 -.266E+01   0.156E+00 0.430E+00 -.140E+00   -.951E-05 0.158E-02 -.531E-03
   -.286E+01 0.213E+02 -.247E+02   0.266E+01 -.215E+02 0.247E+02   0.140E+00 0.430E+00 -.156E+00   0.530E-03 0.158E-02 0.121E-04
   0.219E+02 0.383E-12 -.219E+02   -.223E+02 0.178E-11 0.223E+02   0.649E+00 0.000E+00 -.649E+00   0.103E-03 0.127E-14 -.979E-04
   -.238E+02 0.149E+02 0.113E+02   0.240E+02 -.151E+02 -.110E+02   -.420E+00 0.523E+00 -.596E+00   0.813E-04 0.168E-02 -.761E-03
   0.346E+01 -.166E+01 -.262E+01   -.323E+01 0.979E+00 0.292E+01   -.166E+00 0.104E+01 -.525E+00   -.652E-03 0.677E-03 0.881E-03
   0.829E+01 -.881E-13 0.113E+02   -.837E+01 0.253E-11 -.111E+02   0.860E-01 0.000E+00 -.419E+00   -.616E-03 0.451E-14 -.937E-03
   -.239E+02 0.141E-12 -.261E+02   0.241E+02 0.869E-13 0.260E+02   -.464E+00 0.000E+00 0.106E+00   -.962E-04 0.453E-14 0.253E-03
   0.247E+02 -.213E+02 0.286E+01   -.247E+02 0.215E+02 -.266E+01   0.156E+00 -.430E+00 -.140E+00   -.951E-05 -.158E-02 -.531E-03
   -.286E+01 -.213E+02 -.247E+02   0.266E+01 0.215E+02 0.247E+02   0.140E+00 -.430E+00 -.156E+00   0.530E-03 -.158E-02 0.121E-04
   -.296E+01 -.138E-12 0.296E+01   0.269E+01 0.793E-12 -.269E+01   0.128E+00 0.000E+00 -.128E+00   0.466E-03 0.515E-14 -.467E-03
   0.196E+00 -.851E-14 -.196E+00   -.939E+00 0.131E-13 0.939E+00   0.124E+01 0.000E+00 -.124E+01   -.753E-03 -.249E-15 0.755E-03
   -.238E+02 -.149E+02 0.113E+02   0.240E+02 0.151E+02 -.110E+02   -.420E+00 -.523E+00 -.596E+00   0.813E-04 -.168E-02 -.761E-03
   0.346E+01 0.166E+01 -.262E+01   -.323E+01 -.979E+00 0.292E+01   -.166E+00 -.104E+01 -.525E+00   -.652E-03 -.677E-03 0.881E-03
   0.339E+01 -.444E-13 0.528E+01   -.315E+01 -.827E-14 -.499E+01   -.177E+00 0.000E+00 -.438E+00   -.451E-03 -.445E-14 -.580E-03
   -.168E+01 0.999E-14 -.358E+01   0.195E+01 -.775E-14 0.390E+01   -.584E+00 0.000E+00 -.438E+00   0.817E-03 -.386E-14 0.989E-03
   -.347E+02 0.142E-11 0.347E+02   0.354E+02 -.877E-14 -.354E+02   -.661E+00 0.000E+00 0.661E+00   0.936E-03 -.199E-12 -.944E-03
 -----------------------------------------------------------------------------------------------
   0.464E+00 0.551E-12 -.464E+00   0.213E-13 -.532E-13 0.213E-13   -.463E+00 0.000E+00 0.463E+00   -.385E-03 -.194E-12 0.384E-03
 
 
 POSITION                                       TOTAL-FORCE (eV/Angst)
 -----------------------------------------------------------------------------------
      8.05324      8.01993      8.07813         0.219471      0.363233     -0.064699
      1.99090      8.08195      2.00730         0.316272      0.341605      0.210702
      1.99476      2.02176      0.01280         0.284236      0.000000     -0.006904
      0.02435      2.02176      2.00744         0.002553      0.000000      0.259764
      4.06993      8.05282      8.05986        -0.164055      0.363274      0.311508
      6.09246      8.05282      1.99535        -0.311508      0.363274      0.164055
      6.09764      2.02176      8.05468        -0.307693      0.000000      0.307693
      8.05324      4.11063      8.07813         0.219471     -0.363233     -0.064699
      1.99090      4.04861      2.00730         0.316272     -0.341605      0.210702
      1.99034      6.06528      8.06801         0.157467      0.000000     -0.060356
      8.05819      6.06528      1.99546         0.123722      0.000000      0.311205
      4.06993      4.07774      8.05986        -0.164055     -0.363274      0.311508
      6.09246      4.07774      1.99535        -0.311508     -0.363274      0.164055
      6.11859      6.06528      8.03373        -0.382806      0.000000      0.382806
      4.04697      6.06528      2.01831         0.026911      0.000000     -0.026911
      0.00932      8.08588      4.05589         0.151963      0.160411      0.057870
      2.00939      8.08588      6.05596        -0.057870      0.160411     -0.151963
      8.05177      2.02176      6.10055         0.250782      0.000000     -0.250782
      4.05798      8.08195      4.07438        -0.210702      0.341605     -0.316272
      6.07419      8.01993      6.09908         0.064699      0.363233     -0.219471
      6.05248      2.02176      4.07052         0.006904      0.000000     -0.284236
      4.05784      2.02176      6.04093        -0.259764      0.000000     -0.002553
      0.00932      4.04468      4.05589         0.151963     -0.160411      0.057870
      2.00939      4.04468      6.05596        -0.057870     -0.160411     -0.151963
      2.01744      6.06528      4.04784        -0.136572      0.000000      0.136572
      8.02836      6.06528      6.12396         0.497459      0.000000     -0.497459
      4.05798      4.04861      4.07438        -0.210702     -0.341605     -0.316272
[...]
  alpha Z        PSCENC =        15.76595319
  Ewald energy   TEWEN  =     -2773.86114264
  -1/2 Hartree   DENC   =      -748.16642005
  -exchange  EXHF       =         0.00000000
  -V(xc)+E(xc)   XCENC  =      -743.19438082
  PAW double counting   =      2153.33481326    -1339.43866590
  entropy T*S    EENTRO =        -0.01862453
  eigenvalues    EBANDS =       323.24316100
  atomic energy  EATOM  =      2997.07640482
  ---------------------------------------------------
  free energy    TOTEN  =      -115.25890166 eV

  energy without entropy =     -115.24027713  energy(sigma->0) =     -115.25269348


--------------------------------------------------------------------------------------------------------




 average (electrostatic) potential at core
  the test charge radii are     1.0406  1.0053
  (the norm of the test charge is              1.0000)
       1 -73.2094       2 -73.2040       3 -73.1538       4 -73.2527       5 -73.1795
       6 -73.1795       7 -73.1584       8 -73.2094       9 -73.2040      10 -73.2244
      11 -73.2455      12 -73.1795      13 -73.1795      14 -73.1311      15 -73.2988
      16 -73.2201      17 -73.2201      18 -73.2099      19 -73.2040      20 -73.2094
      21 -73.1538      22 -73.2527      23 -73.2201      24 -73.2201      25 -73.2083
      26 -72.9973      27 -73.2040      28 -73.2094      29 -73.2245      30 -73.2455
      31 -36.7669
 
 
 
 E-fermi :   7.7524     XC(G=0): -10.0738     alpha+bet :-14.1381
   add alpha+bet to get absolut eigen values

 k-point   1 :       0.2500    0.2500    0.2500
  band No.  band energies     occupation 
      1      -3.0394      2.00000
      2      -1.9765      2.00000
      3      -1.9242      2.00000
      4      -1.8055      2.00000
      5      -0.8651      2.00000
      6      -0.8044      2.00000
      7      -0.6236      2.00000
      8       0.2367      2.00000
      9       0.2736      2.00000
     10       0.3078      2.00000
     11       0.5614      2.00000
     12       1.2921      2.00000
     13       1.3149      2.00000
     14       1.3810      2.00000
     15       1.4004      2.00000
     16       1.5290      2.00000
     17       1.7919      2.00000
     18       2.4672      2.00000
     19       2.5330      2.00000
     20       2.6603      2.00000
     21       3.3215      2.00000
     22       3.3744      2.00000
     23       3.4543      2.00000
     24       3.5293      2.00000
     25       3.5996      2.00000
     26       3.7113      2.00000
     27       3.8801      2.00000
     28       3.9874      2.00000
     29       4.1107      2.00000
     30       4.1709      2.00000
     31       4.2200      2.00000
     32       4.5924      2.00000
     33       4.6308      2.00000
     34       4.6693      2.00000
     35       4.7601      2.00000
     36       4.8050      2.00000
     37       4.9176      2.00000
     38       4.9604      2.00000
     39       5.0075      2.00000
     40       5.3016      2.00000
     41       5.7032      2.00000
     42       5.9331      2.00000
     43       6.1781      2.00000
     44       6.7126      2.00000
     45       6.7726      2.00000
     46       6.8056      2.00000
     47       6.9390      2.00000
     48       6.9821      2.00000
     49       7.0166      2.00000
     50       7.0443      2.00001
     51       7.7820      0.75283
     52       7.8656      0.19181
     53       7.9381     -0.03204
     54       8.0303     -0.06430
     55       8.0459     -0.05816
     56       8.0794     -0.04291
     57       8.1471     -0.01740
     58       8.1823     -0.00959
     59       8.2534     -0.00227
     60       9.0835      0.00000
     61       9.1343      0.00000
     62       9.2168      0.00000
     63       9.3584      0.00000
     64       9.3820      0.00000
     65       9.4379      0.00000
     66       9.8596      0.00000
     67       9.9106      0.00000
     68       9.9800      0.00000
     69      10.0247      0.00000
     70      10.0557      0.00000
     71      10.1498      0.00000
     72      10.5166      0.00000

 k-point   2 :      -0.2500    0.2500    0.2500
  band No.  band energies     occupation 
      1      -3.0378      2.00000
      2      -1.9759      2.00000
      3      -1.9540      2.00000
      4      -1.7814      2.00000
      5      -0.8651      2.00000
      6      -0.8319      2.00000
      7      -0.5533      2.00000
      8       0.2355      2.00000
      9       0.2484      2.00000
     10       0.3421      2.00000
     11       0.4821      2.00000
     12       1.2844      2.00000
     13       1.3081      2.00000
     14       1.3281      2.00000
     15       1.4366      2.00000
     16       1.5492      2.00000
     17       1.8265      2.00000
     18       2.5034      2.00000
     19       2.5114      2.00000
     20       2.6351      2.00000
     21       3.3543      2.00000
     22       3.3778      2.00000
     23       3.4773      2.00000
     24       3.5362      2.00000
     25       3.5866      2.00000
     26       3.7759      2.00000
     27       3.8866      2.00000
     28       3.9726      2.00000
     29       4.1160      2.00000
     30       4.1189      2.00000
     31       4.2883      2.00000
     32       4.5509      2.00000
     33       4.6215      2.00000
     34       4.6305      2.00000
     35       4.7644      2.00000
     36       4.7887      2.00000
     37       4.8770      2.00000
     38       4.9996      2.00000
     39       5.0964      2.00000
     40       5.2039      2.00000
     41       5.7000      2.00000
     42       5.8009      2.00000
     43       6.2914      2.00000
     44       6.7121      2.00000
     45       6.7413      2.00000
     46       6.7499      2.00000
     47       6.9025      2.00000
     48       6.9859      2.00000
     49       7.0186      2.00000
     50       7.0628      2.00001
     51       7.7822      0.75092
     52       7.8254      0.42541
     53       7.8620      0.20944
     54       8.0769     -0.04409
     55       8.0892     -0.03849
     56       8.1664     -0.01267
     57       8.2097     -0.00570
     58       8.2455     -0.00270
     59       8.3712     -0.00011
     60       9.0255      0.00000
     61       9.0670      0.00000
     62       9.1435      0.00000
     63       9.3076      0.00000
     64       9.4052      0.00000
     65       9.4293      0.00000
     66       9.9511      0.00000
     67       9.9546      0.00000
     68       9.9649      0.00000
     69       9.9796      0.00000
     70      10.1602      0.00000
     71      10.1823      0.00000
     72      10.5685      0.00000


--------------------------------------------------------------------------------------------------------


 soft charge-density along one line, spin component           1
         0         1         2         3         4         5         6         7         8         9
 total charge-density along one line
 
 pseudopotential strength for first ion, spin component:           1
  8.464  -0.005   0.000   0.000   0.000   0.000   0.000   0.000
 -0.005   0.000   0.000   0.000   0.000   0.000   0.000   0.000
  0.000   0.000   1.987   0.000   0.000  -0.025   0.000   0.000
  0.000   0.000   0.000   1.987   0.000   0.000  -0.025   0.000
  0.000   0.000   0.000   0.000   1.987   0.000   0.000  -0.025
  0.000   0.000  -0.025   0.000   0.000  -0.012   0.000   0.000
  0.000   0.000   0.000  -0.025   0.000   0.000  -0.012   0.000
  0.000   0.000   0.000   0.000  -0.025   0.000   0.000  -0.012
 total augmentation occupancy for first ion, spin component:           1
  1.323  -0.492  -0.007  -0.004  -0.004   0.007   0.007   0.004
 -0.492   0.473   0.007   0.010   0.003  -0.004  -0.005  -0.002
 -0.007   0.007   0.735   0.003   0.003  -0.179   0.000   0.000
 -0.004   0.010   0.003   0.715   0.001   0.000  -0.176   0.000
 -0.004   0.003   0.003   0.001   0.725   0.000   0.000  -0.177
  0.007  -0.004  -0.179   0.000   0.000   0.049   0.000   0.000
  0.007  -0.005   0.000  -0.176   0.000   0.000   0.049   0.000
  0.004  -0.002   0.000   0.000  -0.177   0.000   0.000   0.049


------------------------ aborting loop because EDIFF is reached ----------------------------------------




--------------------------------------------------------------------------------------------------------



  FREE ENERGIE OF THE ION-ELECTRON SYSTEM (eV)
  ---------------------------------------------------
  free  energy   TOTEN  =      -115.258902 eV

  energy  without entropy=     -115.240277  energy(sigma->0) =     -115.252693
 
    CHARGE:  cpu time    0.18: real time    0.18
    FORLOC:  cpu time    0.04: real time    0.04
    FORNL :  cpu time    0.48: real time    0.48
    STRESS:  cpu time    1.09: real time    1.09
    FORCOR:  cpu time    0.17: real time    0.17
    FORHAR:  cpu time    0.07: real time    0.07
    MIXING:  cpu time    0.01: real time    0.01

  FORCE on cell =-STRESS in cart. coord.  units (eV):
  Direction    XX          YY          ZZ          XY          YZ          ZX
  --------------------------------------------------------------------------------------
  Alpha Z    15.76595    15.76595    15.76595
  Ewald    -946.82440  -880.22291  -946.82440     0.00000     0.00000    42.50900
  Hartree   233.19458   281.62316   233.19458     0.00000     0.00000    26.34027
  E(xc)    -317.44225  -317.30673  -317.44225     0.00000     0.00000     0.05212
  Local     -65.95647  -180.29931   -65.95647     0.00000     0.00000   -68.39078
  n-local   529.13235   527.81488   529.13253    -0.13879    -0.98308    -0.32229
  augment    25.98849    25.85747    25.98849     0.00001     0.00000    -0.19207
  Kinetic   520.46724   520.54728   520.46734     2.00221     3.61959    -1.28129
  Fock        0.00000     0.00000     0.00000     0.00000     0.00000     0.00000
  -------------------------------------------------------------------------------------
  Total      -5.67436    -6.22022    -5.67436     0.00000     0.00000    -1.28503
  in kB     -17.18931   -18.84288   -17.18931     0.00000     0.00000    -3.89274
  external pressure =      -17.74 kB  Pullay stress =        0.00 kB


 VOLUME and BASIS-vectors are now :
 -----------------------------------------------------------------------------
  energy-cutoff  :      300.00
  volume of cell :      528.89
      direct lattice vectors                 reciprocal lattice vectors
     8.087040000  0.000000000  0.000000000     0.123654638  0.000000000  0.000000000
     0.000000000  8.087040000  0.000000000     0.000000000  0.123654638  0.000000000
     0.000000000  0.000000000  8.087040000     0.000000000  0.000000000  0.123654638

  length of vectors
     8.087040000  8.087040000  8.087040000     0.123654638  0.123654638  0.123654638


 FORCES acting on ions
    electron-ion (+dipol)            ewald-force                    non-local-force                 convergence-correction
 -----------------------------------------------------------------------------------------------
   0.517E+01 0.302E+01 -.368E+01   -.536E+01 -.339E+01 0.337E+01   0.215E+00 0.405E+00 0.352E+00   0.247E-03 -.131E-02 -.390E-03
   -.839E+01 0.226E+02 0.300E+02   0.856E+01 -.223E+02 -.298E+02   -.150E+00 -.230E+00 -.125E+00   -.859E-03 0.121E-02 0.132E-02
   -.759E+01 0.213E-12 -.612E+01   0.780E+01 -.710E-15 0.642E+01   -.224E+00 0.000E+00 -.324E+00   -.275E-03 0.520E-13 -.140E-03
   0.287E+02 0.101E-12 0.285E+02   -.285E+02 0.607E-14 -.285E+02   -.297E+00 0.000E+00 -.326E-01   0.186E-02 0.109E-12 0.201E-02
   -.575E+01 -.818E+00 -.709E+01   0.583E+01 0.976E+00 0.735E+01   -.665E-01 -.170E+00 -.255E+00   0.501E-03 0.856E-04 -.238E-03
   0.709E+01 -.818E+00 0.575E+01   -.735E+01 0.976E+00 -.583E+01   0.255E+00 -.170E+00 0.665E-01   0.239E-03 0.845E-04 -.504E-03
   0.722E+01 -.277E-12 -.722E+01   -.748E+01 -.551E-14 0.748E+01   0.259E+00 0.000E+00 -.259E+00   0.418E-04 0.132E-12 -.405E-04
   0.517E+01 -.302E+01 -.368E+01   -.536E+01 0.339E+01 0.337E+01   0.215E+00 -.405E+00 0.352E+00   0.247E-03 0.131E-02 -.390E-03
   -.839E+01 -.226E+02 0.300E+02   0.856E+01 0.223E+02 -.298E+02   -.150E+00 0.230E+00 -.125E+00   -.859E-03 -.121E-02 0.132E-02
   -.318E+01 0.548E-12 -.399E+01   0.299E+01 0.470E-14 0.363E+01   0.217E+00 0.000E+00 0.395E+00   -.186E-02 -.181E-13 0.354E-03
   0.514E+01 0.958E-13 0.585E+01   -.535E+01 0.655E-14 -.590E+01   0.243E+00 0.000E+00 0.406E-01   0.813E-03 -.900E-13 -.120E-02
   -.575E+01 0.818E+00 -.709E+01   0.583E+01 -.976E+00 0.735E+01   -.665E-01 0.170E+00 -.255E+00   0.501E-03 -.856E-04 -.238E-03
   0.709E+01 0.818E+00 0.575E+01   -.735E+01 -.976E+00 -.583E+01   0.255E+00 0.170E+00 0.665E-01   0.239E-03 -.845E-04 -.504E-03
   0.373E+01 -.348E-13 -.373E+01   -.341E+01 -.481E-14 0.341E+01   -.387E+00 0.000E+00 0.387E+00   0.131E-02 -.127E-12 -.131E-02
   -.525E+01 0.596E-13 0.525E+01   0.558E+01 0.551E-14 -.558E+01   -.312E+00 0.000E+00 0.312E+00   -.736E-03 -.944E-13 0.734E-03
   0.283E+02 0.259E+02 0.277E+01   -.282E+02 -.261E+02 -.262E+01   -.754E-01 0.130E+00 -.145E+00   0.231E-02 0.172E-02 0.120E-02
   -.277E+01 0.259E+02 -.283E+02   0.262E+01 -.261E+02 0.282E+02   0.145E+00 0.130E+00 0.754E-01   -.120E-02 0.172E-02 -.230E-02
   0.269E+02 -.773E-13 -.269E+02   -.270E+02 -.358E-14 0.270E+02   0.825E-01 0.000E+00 -.825E-01   0.210E-02 0.377E-13 -.210E-02
   -.300E+02 0.226E+02 0.839E+01   0.298E+02 -.223E+02 -.856E+01   0.125E+00 -.230E+00 0.150E+00   -.132E-02 0.121E-02 0.858E-03
   0.368E+01 0.302E+01 -.517E+01   -.337E+01 -.339E+01 0.536E+01   -.352E+00 0.405E+00 -.215E+00   0.391E-03 -.131E-02 -.243E-03
   0.612E+01 0.180E-12 0.759E+01   -.642E+01 0.821E-14 -.780E+01   0.324E+00 0.000E+00 0.224E+00   0.141E-03 0.135E-12 0.273E-03
   -.285E+02 0.373E-14 -.287E+02   0.285E+02 -.964E-14 0.285E+02   0.326E-01 0.000E+00 0.297E+00   -.202E-02 0.120E-12 -.186E-02
   0.283E+02 -.259E+02 0.277E+01   -.282E+02 0.261E+02 -.262E+01   -.754E-01 -.130E+00 -.145E+00   0.231E-02 -.172E-02 0.120E-02
   -.277E+01 -.259E+02 -.283E+02   0.262E+01 0.261E+02 0.282E+02   0.145E+00 -.130E+00 0.754E-01   -.120E-02 -.172E-02 -.230E-02
   -.324E+01 -.870E-13 0.324E+01   0.294E+01 0.186E-14 -.294E+01   0.286E+00 0.000E+00 -.286E+00   -.206E-03 -.588E-13 0.205E-03
   0.484E+01 0.121E-12 -.484E+01   -.517E+01 -.124E-14 0.517E+01   0.388E+00 0.000E+00 -.388E+00   -.496E-03 -.191E-13 0.498E-03
   -.300E+02 -.226E+02 0.839E+01   0.298E+02 0.223E+02 -.856E+01   0.125E+00 0.230E+00 0.150E+00   -.132E-02 -.121E-02 0.858E-03
   0.368E+01 -.302E+01 -.517E+01   -.337E+01 0.339E+01 0.536E+01   -.352E+00 -.405E+00 -.215E+00   0.391E-03 0.131E-02 -.243E-03
   0.399E+01 -.964E-13 0.318E+01   -.363E+01 -.389E-15 -.299E+01   -.395E+00 0.000E+00 -.217E+00   -.354E-03 -.115E-12 0.186E-02
   -.585E+01 -.477E-13 -.514E+01   0.590E+01 -.713E-15 0.535E+01   -.406E-01 0.000E+00 -.243E+00   0.120E-02 -.102E-12 -.811E-03
   -.273E+02 0.762E-12 0.273E+02   0.281E+02 -.134E-13 -.281E+02   -.849E+00 0.000E+00 0.849E+00   -.172E-01 0.220E-12 0.172E-01
 -----------------------------------------------------------------------------------------------
   0.495E+00 0.140E-11 -.495E+00   -.284E-13 -.291E-13 0.497E-13   -.480E+00 -.555E-16 0.480E+00   -.151E-01 0.778E-13 0.151E-01
 
 
 POSITION                                       TOTAL-FORCE (eV/Angst)
 -----------------------------------------------------------------------------------
      8.08268      8.07001      8.07286         0.027453      0.038291      0.042075
      2.05726      0.08323      2.05703         0.017855      0.050799      0.001294
      2.04505      2.02176      0.03146        -0.017771      0.000000     -0.030777
      0.04225      2.02176      2.04773        -0.026438      0.000000     -0.024751
      4.03967      0.03481      0.02697         0.012334     -0.011636      0.004166
      6.03831      0.03481      2.02561        -0.004166     -0.011636     -0.012334
      6.04469      2.02176      0.02059        -0.000109      0.000000      0.000109
      8.08268      4.06055      8.07286         0.027453     -0.038291      0.042075
      2.05726      3.96029      2.05703         0.017855     -0.050799      0.001294
      2.00681      6.06528      8.06430         0.018054      0.000000      0.036599
      8.08523      6.06528      2.03099         0.033963      0.000000     -0.013553
      4.03967      4.00871      0.02697         0.012334      0.011636      0.004166
      6.03831      4.00871      2.02561        -0.004166      0.011636     -0.012334
      6.07996      6.06528     -0.01468        -0.061206      0.000000      0.061206
      4.04354      6.06528      2.02174         0.020315      0.000000     -0.020315
      0.03317      0.02857      4.04990        -0.010337     -0.024058      0.012295
      2.01538      0.02857      6.03211        -0.012295     -0.024058      0.010337
      0.00596      2.02176      6.05932         0.007253      0.000000     -0.007253
      4.00825      0.08323      4.00802        -0.001294      0.050799     -0.017855
      6.07946      8.07001      6.06964        -0.042075      0.038291     -0.027453
      6.03382      2.02176      4.02023         0.030777      0.000000      0.017771
      4.01755      2.02176      6.02303         0.024751      0.000000      0.026438
      0.03317      4.01495      4.04990        -0.010337      0.024058      0.012295
      2.01538      4.01495      6.03211        -0.012295      0.024058      0.010337
      2.01151      6.06528      4.05377        -0.010191      0.000000      0.010191
     -0.00880      6.06528      6.07408         0.057933      0.000000     -0.057933
      4.00825      3.96029      4.00802        -0.001294     -0.050799     -0.017855
      6.07946      4.06055      6.06964        -0.042075     -0.038291     -0.027453
      6.08802      6.06528      4.05847        -0.036599      0.000000     -0.018054
      4.03429      6.06528      6.06709         0.013553      0.000000     -0.033963
      2.02388      2.02176      4.04140        -0.029234      0.000000      0.029234
 -----------------------------------------------------------------------------------
    total drift:                               -0.000189      0.000000      0.000198
 d Force = 0.1581679E-01[-0.253E-03, 0.319E-01]  d Energy = 0.1582013E-01-0.334E-05
 d Force =-0.3432074E+01[-0.365E+01,-0.322E+01]  d Ewald  =-0.3431702E+01-0.372E-03


--------------------------------------------------------------------------------------------------------


    POTLOK:  cpu time    0.16: real time    0.16


--------------------------------------------------------------------------------------------------------


  FORCES: max atom, RMS     0.086559    0.044118
  FORCE total and by dimension    0.245639    0.061206


--------------------------------------------------------------------------------------------------------


  
 reached required accuracy - stopping structural energy minimisation
     LOOP+:  cpu time    9.34: real time    9.35
    4ORBIT:  cpu time    0.00: real time    0.00

 total amount of memory used by VASP on root node  63028. kBytes
========================================================================

   base      :    30000. kBytes
   nonl-proj :     6689. kBytes
   fftplans  :     2983. kBytes
   grid      :    21626. kBytes
   one-center:      482. kBytes
   wavefun   :     1248. kBytes
 
  
  
 General timing and accounting informations for this job:
 ========================================================
  
                  Total CPU time used (sec):       77.655
                            User time (sec):       77.517
                          System time (sec):        0.138
                         Elapsed time (sec):       77.928
  
                   Maximum memory used (kb):           0.
                   Average memory used (kb):           0.
  
                          Minor page faults:        23401
                          Major page faults:            0
                 Voluntary context switches:         1633
