<?xml version="1.0" encoding="ISO-8859-1"?>
<modeling>
 <generator>
  <i name="program" type="string">vasp </i>
  <i name="version" type="string">5.2.2  </i>
  <i name="subversion" type="string">15Apr09 complex  parallel </i>
  <i name="platform" type="string">LinuxIFC </i>
  <i name="date" type="string">2017 01 11 </i>
  <i name="time" type="string">13:33:14 </i>
 </generator>
 <incar>
  <i type="string" name="PREC">accurate</i>
  <i type="int" name="IALGO">    48</i>
  <i type="int" name="IBRION">     2</i>
  <i name="EDIFFG">      0.05000000</i>
  <i type="int" name="NSW">   191</i>
  <i type="int" name="ISIF">     2</i>
  <i name="ENCUT">    300.00000000</i>
  <i name="NELECT">    101.00000000</i>
  <i type="int" name="ISMEAR">     1</i>
  <i name="SIGMA">      0.20000000</i>
  <i type="logical" name="LWAVE"> F  </i>
  <i type="logical" name="LCHARG"> F  </i>
  <i type="logical" name="LPEAD"> F  </i>
  <i type="logical" name="LCALCPOL"> F  </i>
  <i type="logical" name="LCALCEPS"> F  </i>
  <v name="EFIELD_PEAD">      0.00000000      0.00000000      0.00000000</v>
  <i type="logical" name="LEFG"> F  </i>
 </incar>
 <kpoints>
  <generation param="Monkhorst-Pack">
   <v type="int" name="divisions">       2        2        2 </v>
   <v name="usershift">      0.00000000       0.00000000       0.00000000 </v>
   <v name="genvec1">      0.50000000       0.00000000       0.00000000 </v>
   <v name="genvec2">      0.00000000       0.50000000       0.00000000 </v>
   <v name="genvec3">      0.00000000       0.00000000       0.50000000 </v>
   <v name="shift">      0.50000000       0.50000000       0.50000000 </v>
  </generation>
  <varray name="kpointlist" >
   <v>       0.25000000       0.25000000       0.25000000 </v>
   <v>      -0.25000000       0.25000000       0.25000000 </v>
  </varray>
  <varray name="weights" >
   <v>       0.50000000 </v>
   <v>       0.50000000 </v>
  </varray>
 </kpoints>
 <parameters>
  <separator name="general" >
   <i type="string" name="SYSTEM">unknown system</i>
   <i type="logical" name="LCOMPAT"> F  </i>
  </separator>
  <separator name="electronic" >
   <i type="string" name="PREC">accura</i>
   <i name="ENMAX">    300.00000000</i>
   <i name="ENAUG">    516.45600000</i>
   <i name="EDIFF">      0.00010000</i>
   <i type="int" name="IALGO">    48</i>
   <i type="int" name="IWAVPR">    11</i>
   <i type="int" name="NBANDS">    72</i>
   <i name="NELECT">    101.00000000</i>
   <separator name="electronic smearing" >
    <i type="int" name="ISMEAR">     1</i>
    <i name="SIGMA">      0.20000000</i>
   </separator>
   <separator name="electronic projectors" >
    <i type="logical" name="LREAL"> F  </i>
    <v name="ROPT">      0.00000000      0.00000000</v>
    <i type="int" name="LMAXPAW">  -100</i>
    <i type="int" name="LMAXMIX">     2</i>
   </separator>
   <separator name="electronic startup" >
    <i type="int" name="ISTART">     0</i>
    <i type="int" name="ICHARG">     2</i>
    <i type="int" name="INIWAV">     1</i>
   </separator>
   <separator name="electronic spin" >
    <i type="int" name="ISPIN">     1</i>
    <i type="logical" name="LNONCOLLINEAR"> F  </i>
    <v name="MAGMOM">      1.00000000      1.00000000      1.00000000      1.00000000      1.00000000      1.00000000      1.00000000      1.00000000      1.00000000      1.00000000      1.00000000      1.00000000      1.00000000      1.00000000      1.00000000      1.00000000      1.00000000      1.00000000      1.00000000      1.00000000
      1.00000000      1.00000000      1.00000000      1.00000000      1.00000000      1.00000000      1.00000000      1.00000000      1.00000000      1.00000000      1.00000000</v>
    <i name="NUPDOWN">     -1.00000000</i>
    <i type="logical" name="LSORBIT"> F  </i>
    <v name="SAXIS">      0.00000000      0.00000000      1.00000000</v>
    <i type="logical" name="LSPIRAL"> F  </i>
    <v name="QSPIRAL">      0.00000000      0.00000000      0.00000000</v>
    <i type="logical" name="LZEROZ"> F  </i>
   </separator>
   <separator name="electronic exchange-correlation" >
    <i type="logical" name="LASPH"> F  </i>
    <i type="logical" name="LMETAGGA"> F  </i>
   </separator>
   <separator name="electronic convergence" >
    <i type="int" name="NELM">    60</i>
    <i type="int" name="NELMDL">   -12</i>
    <i type="int" name="NELMIN">     2</i>
    <i name="ENINI">    300.00000000</i>
    <separator name="electronic convergence detail" >
     <i type="logical" name="LDIAG"> T  </i>
     <i name="WEIMIN">      0.00100000</i>
     <i name="EBREAK">      0.00000038</i>
     <i name="DEPER">      0.30000000</i>
     <i type="int" name="NRMM">     4</i>
     <i name="TIME">      0.40000000</i>
    </separator>
   </separator>
   <separator name="electronic mixer" >
    <i name="AMIX">      0.40000000</i>
    <i name="BMIX">      1.00000000</i>
    <i name="AMIN">      0.10000000</i>
    <i name="AMIX_MAG">      1.60000000</i>
    <i name="BMIX_MAG">      1.00000000</i>
    <separator name="electronic mixer details" >
     <i type="int" name="IMIX">     4</i>
     <i type="int" name="MAXMIX">   -45</i>
     <i name="WC">    100.00000000</i>
     <i type="int" name="INIMIX">     1</i>
     <i type="int" name="MIXPRE">     1</i>
     <i type="int" name="MREMOVE">     5</i>
    </separator>
   </separator>
   <separator name="electronic dipolcorrection" >
    <i type="logical" name="LDIPOL"> F  </i>
    <i type="logical" name="LMONO"> F  </i>
    <i type="int" name="IDIPOL">     0</i>
    <i name="EPSILON">      1.00000000</i>
    <v name="DIPOL">   -100.00000000   -100.00000000   -100.00000000</v>
    <i name="EFIELD">      0.00000000</i>
   </separator>
  </separator>
  <separator name="grids" >
   <i type="int" name="NGX">    48</i>
   <i type="int" name="NGY">    48</i>
   <i type="int" name="NGZ">    48</i>
   <i type="int" name="NGXF">    96</i>
   <i type="int" name="NGYF">    96</i>
   <i type="int" name="NGZF">    96</i>
   <i type="logical" name="ADDGRID"> F  </i>
  </separator>
  <separator name="ionic" >
   <i type="int" name="NSW">   191</i>
   <i type="int" name="IBRION">     2</i>
   <i type="int" name="ISIF">     2</i>
   <i name="PSTRESS">      0.00000000</i>
   <i name="EDIFFG">      0.05000000</i>
   <i type="int" name="NFREE">     1</i>
   <i name="POTIM">      0.50000000</i>
   <i name="SMASS">     -3.00000000</i>
  </separator>
  <separator name="ionic md" >
   <i name="TEBEG">      0.00010000</i>
   <i name="TEEND">      0.00010000</i>
   <i type="int" name="NBLOCK">     1</i>
   <i type="int" name="KBLOCK">   191</i>
   <i type="int" name="NPACO">   256</i>
   <i name="APACO">     16.00000000</i>
  </separator>
  <separator name="symmetry" >
   <i type="int" name="ISYM">     2</i>
   <i name="SYMPREC">      0.00001000</i>
  </separator>
  <separator name="dos" >
   <i type="logical" name="LORBIT"> F  </i>
   <v name="RWIGS">     -1.00000000     -1.00000000</v>
   <i type="int" name="NEDOS">   301</i>
   <i name="EMIN">     10.00000000</i>
   <i name="EMAX">    -10.00000000</i>
   <i name="EFERMI">      0.00000000</i>
  </separator>
  <separator name="writing" >
   <i type="int" name="NWRITE">     2</i>
   <i type="logical" name="LWAVE"> F  </i>
   <i type="logical" name="LCHARG"> F  </i>
   <i type="logical" name="LPARD"> F  </i>
   <i type="logical" name="LVTOT"> F  </i>
   <i type="logical" name="LELF"> F  </i>
   <i type="logical" name="LOPTICS"> F  </i>
   <v name="STM">      0.00000000      0.00000000      0.00000000      0.00000000      0.00000000</v>
  </separator>
  <separator name="performance" >
   <i type="int" name="NPAR">    12</i>
   <i type="int" name="NSIM">     4</i>
   <i type="int" name="NBLK">    32</i>
   <i type="logical" name="LPLANE"> T  </i>
   <i type="logical" name="LSCALAPACK"> F  </i>
   <i type="logical" name="LSCAAWARE"> F  </i>
   <i type="logical" name="LSCALU"> F  </i>
   <i type="logical" name="LASYNC"> F  </i>
  </separator>
  <separator name="miscellaneous" >
   <i type="int" name="IDIOT">     3</i>
   <i type="logical" name="LMUSIC"> F  </i>
   <v name="POMASS">     26.98200000     63.54600000</v>
   <i type="logical" name="LCORR"> T  </i>
  </separator>
  <i type="logical" name="LREAL_COMPAT"> F  </i>
  <i type="logical" name="GGA_COMPAT"> T  </i>
  <i type="logical" name="LBERRY"> F  </i>
  <i type="int" name="ICORELEVEL">     0</i>
  <i type="logical" name="LDAU"> F  </i>
  <i type="int" name="I_CONSTRAINED_M">     0</i>
  <separator name="electronic exchange-correlation" >
   <i type="string" name="GGA">--</i>
   <i type="int" name="VOSKOWN">     0</i>
   <i type="logical" name="LHFCALC"> F  </i>
   <i type="logical" name="LHFONE"> F  </i>
   <i type="logical" name="LRHFCALC"> F  </i>
   <i type="logical" name="LTHOMAS"> F  </i>
   <i type="logical" name="LMODELHF"> F  </i>
   <i name="ENCUTFOCK">      0.00000000</i>
   <i name="ENCUT4O">     -1.00000000</i>
   <i type="int" name="EXXOEP">     0</i>
   <i type="int" name="FOURORBIT">     0</i>
   <i name="AEXX">      0.00000000</i>
   <i name="HFALPHA">      0.00000000</i>
   <i name="ALDAX">      1.00000000</i>
   <i name="AGGAX">      1.00000000</i>
   <i name="ALDAC">      1.00000000</i>
   <i name="AGGAC">      1.00000000</i>
   <i type="int" name="NKREDX">     1</i>
   <i type="int" name="NKREDY">     1</i>
   <i type="int" name="NKREDZ">     1</i>
   <i type="logical" name="SHIFTRED"> F  </i>
   <i type="logical" name="ODDONLY"> F  </i>
   <i type="logical" name="EVENONLY"> F  </i>
   <i type="int" name="LMAXFOCK">     0</i>
   <i type="int" name="NMAXFOCKAE">     0</i>
   <i name="HFSCREEN">      0.00000000</i>
   <i name="HFSCREENC">      0.00000000</i>
  </separator>
  <separator name="model GW" >
   <i type="int" name="MODEL_GW">     0</i>
   <i name="MODEL_EPS0">     10.23666121</i>
   <i name="MODEL_ALPHA">      1.00000000</i>
  </separator>
  <separator name="linear response parameters" >
   <i type="logical" name="LEPSILON"> F  </i>
   <i type="logical" name="LRPA"> F  </i>
   <i type="logical" name="LNABLA"> F  </i>
   <i type="logical" name="LVEL"> F  </i>
   <i type="int" name="KINTER">     0</i>
   <i name="CSHIFT">      0.10000000</i>
   <i name="OMEGAMAX">     -1.00000000</i>
  </separator>
  <separator name="orbital magnetization" >
   <i type="logical" name="ORBITALMAG"> F  </i>
   <i type="logical" name="LMAGBLOCH"> F  </i>
   <i type="logical" name="LCHIMAG"> F  </i>
   <i type="logical" name="LGAUGE"> T  </i>
   <i type="int" name="MAGATOM">     0</i>
   <v name="MAGDIPOL">      0.00000000      0.00000000      0.00000000</v>
   <v name="AVECCONST">      0.00000000      0.00000000      0.00000000</v>
  </separator>
  <separator name="response functions" >
   <i type="logical" name="LRPA"> T  </i>
   <i type="logical" name="LTCTE"> F  </i>
   <i type="logical" name="LTETE"> F  </i>
   <i type="logical" name="L2ORDER"> F  </i>
   <i type="logical" name="LGWLF"> F  </i>
   <i name="ENCUTGW">    200.00000000</i>
   <i name="ENCUTGWSOFT">     -2.00000000</i>
   <i name="ENCUTLF">     -1.00000000</i>
   <i type="int" name="LMAXMP2">    -1</i>
   <i name="SCISSOR">      0.00000000</i>
   <i type="int" name="NOMEGA">     0</i>
   <i type="int" name="NOMEGAR">     0</i>
   <i type="int" name="NBANDSGW">    -1</i>
   <i type="int" name="NBANDSLF">    -1</i>
   <i type="int" name="NELM">     1</i>
   <i type="int" name="DIM">     3</i>
   <i type="int" name="ANTIRES">     0</i>
   <i type="logical" name="LUSEW"> F  </i>
   <i name="OMEGAMAX">    -30.00000000</i>
   <i name="OMEGATL">   -200.00000000</i>
   <i type="int" name="OMEGAGRID">     0</i>
   <i name="CSHIFT">     -0.10000000</i>
   <i type="logical" name="SELFENERGY"> F  </i>
   <i type="logical" name="LSPECTRAL"> F  </i>
   <i type="logical" name="ODDONLYGW"> F  </i>
   <i type="logical" name="EVENONLYGW"> F  </i>
   <i type="int" name="NKREDLFX">     1</i>
   <i type="int" name="NKREDLFY">     1</i>
   <i type="int" name="NKREDLFZ">     1</i>
   <i type="int" name="MAXMEM">  1024</i>
   <i type="int" name="TELESCOPE">     0</i>
  </separator>
 </parameters>
 <atominfo>
  <atoms>      31 </atoms>
  <types>       2 </types>
  <array name="atoms" >
   <dimension dim="1">ion</dimension>
   <field type="string">element</field>
   <field type="int">atomtype</field>
   <set>
    <rc><c>Al</c><c>   1</c></rc>
    <rc><c>Al</c><c>   1</c></rc>
    <rc><c>Al</c><c>   1</c></rc>
    <rc><c>Al</c><c>   1</c></rc>
    <rc><c>Al</c><c>   1</c></rc>
    <rc><c>Al</c><c>   1</c></rc>
    <rc><c>Al</c><c>   1</c></rc>
    <rc><c>Al</c><c>   1</c></rc>
    <rc><c>Al</c><c>   1</c></rc>
    <rc><c>Al</c><c>   1</c></rc>
    <rc><c>Al</c><c>   1</c></rc>
    <rc><c>Al</c><c>   1</c></rc>
    <rc><c>Al</c><c>   1</c></rc>
    <rc><c>Al</c><c>   1</c></rc>
    <rc><c>Al</c><c>   1</c></rc>
    <rc><c>Al</c><c>   1</c></rc>
    <rc><c>Al</c><c>   1</c></rc>
    <rc><c>Al</c><c>   1</c></rc>
    <rc><c>Al</c><c>   1</c></rc>
    <rc><c>Al</c><c>   1</c></rc>
    <rc><c>Al</c><c>   1</c></rc>
    <rc><c>Al</c><c>   1</c></rc>
    <rc><c>Al</c><c>   1</c></rc>
    <rc><c>Al</c><c>   1</c></rc>
    <rc><c>Al</c><c>   1</c></rc>
    <rc><c>Al</c><c>   1</c></rc>
    <rc><c>Al</c><c>   1</c></rc>
    <rc><c>Al</c><c>   1</c></rc>
    <rc><c>Al</c><c>   1</c></rc>
    <rc><c>Al</c><c>   1</c></rc>
    <rc><c>Cu</c><c>   2</c></rc>
   </set>
  </array>
  <array name="atomtypes" >
   <dimension dim="1">type</dimension>
   <field type="int">atomspertype</field>
   <field type="string">element</field>
   <field>mass</field>
   <field>valence</field>
   <field type="string">pseudopotential</field>
   <set>
    <rc><c>  30</c><c>Al</c><c>     26.98200000</c><c>      3.00000000</c><c> PAW_PBE Al 04Jan2001                   </c></rc>
    <rc><c>   1</c><c>Cu</c><c>     63.54600000</c><c>     11.00000000</c><c> PAW_PBE Cu 05Jan2001                   </c></rc>
   </set>
  </array>
 </atominfo>
 <structure name="initialpos" >
  <crystal>
   <varray name="basis" >
    <v>       8.08704000       0.00000000       0.00000000 </v>
    <v>       0.00000000       8.08704000       0.00000000 </v>
    <v>       0.00000000       0.00000000       8.08704000 </v>
   </varray>
   <i name="volume">    528.89416249 </i>
   <varray name="rec_basis" >
    <v>       0.12365464       0.00000000       0.00000000 </v>
    <v>       0.00000000       0.12365464       0.00000000 </v>
    <v>       0.00000000       0.00000000       0.12365464 </v>
   </varray>
  </crystal>
  <varray name="positions" >
   <v>       0.99582100       0.99170200       0.99889800 </v>
   <v>       0.24618400       0.99937100       0.24821200 </v>
   <v>       0.24666100       0.25000000       0.00158300 </v>
   <v>       0.00301100       0.25000000       0.24822900 </v>
   <v>       0.50326600       0.99576800       0.99663900 </v>
   <v>       0.75336100       0.99576800       0.24673400 </v>
   <v>       0.75400100       0.25000000       0.99599900 </v>
   <v>       0.99582100       0.50829800       0.99889800 </v>
   <v>       0.24618400       0.50062900       0.24821200 </v>
   <v>       0.24611500       0.75000000       0.99764700 </v>
   <v>       0.99643200       0.75000000       0.24674800 </v>
   <v>       0.50326600       0.50423200       0.99663900 </v>
   <v>       0.75336100       0.50423200       0.24673400 </v>
   <v>       0.75659200       0.75000000       0.99340800 </v>
   <v>       0.50042600       0.75000000       0.24957400 </v>
   <v>       0.00115200       0.99985600       0.50152900 </v>
   <v>       0.24847100       0.99985600       0.74884800 </v>
   <v>       0.99563900       0.25000000       0.75436100 </v>
   <v>       0.50178800       0.99937100       0.50381600 </v>
   <v>       0.75110200       0.99170200       0.75417900 </v>
   <v>       0.74841700       0.25000000       0.50333900 </v>
   <v>       0.50177100       0.25000000       0.74698900 </v>
   <v>       0.00115200       0.50014400       0.50152900 </v>
   <v>       0.24847100       0.50014400       0.74884800 </v>
   <v>       0.24946600       0.75000000       0.50053400 </v>
   <v>       0.99274400       0.75000000       0.75725600 </v>
   <v>       0.50178800       0.50062900       0.50381600 </v>
   <v>       0.75110200       0.50829800       0.75417900 </v>
   <v>       0.75235300       0.75000000       0.50388500 </v>
   <v>       0.50325200       0.75000000       0.75356800 </v>
   <v>       0.25083300       0.25000000       0.49916700 </v>
  </varray>
 </structure>
 <calculation>
  <scstep>
   <time name="diag">    0.30    0.30</time>
   <time name="diis">    0.70    0.70</time>
   <time name="orth">    0.02    0.02</time>
   <time name="total">    1.19    1.20</time>
   <energy>
    <i name="alphaZ">     15.76595319 </i>
    <i name="ewald">  -2790.46487527 </i>
    <i name="hartreedc">   -758.98997031 </i>
    <i name="XCdc">   -745.12238378 </i>
    <i name="pawpsdc">   2148.67993976 </i>
    <i name="pawaedc">  -1334.04649801 </i>
    <i name="eentropy">     -0.01211012 </i>
    <i name="bandstr">    766.67111600 </i>
    <i name="atom">   2997.07640482 </i>
    <i name="e_fr_energy">    299.55757629 </i>
    <i name="e_wo_entrp">    299.56968641 </i>
    <i name="e_0_energy">    299.56161300 </i>
   </energy>
  </scstep>
  <scstep>
   <time name="diag">    0.30    0.30</time>
   <time name="diis">    0.69    0.69</time>
   <time name="orth">    0.02    0.02</time>
   <time name="total">    1.01    1.02</time>
   <energy>
    <i name="e_fr_energy">    -31.04034529 </i>
    <i name="e_wo_entrp">    -31.04794633 </i>
    <i name="e_0_energy">    -31.04287897 </i>
   </energy>
  </scstep>
  <scstep>
   <time name="diag">    0.30    0.30</time>
   <time name="diis">    0.69    0.69</time>
   <time name="orth">    0.02    0.02</time>
   <time name="total">    1.00    1.01</time>
   <energy>
    <i name="e_fr_energy">    -92.62805637 </i>
    <i name="e_wo_entrp">    -92.62476474 </i>
    <i name="e_0_energy">    -92.62695916 </i>
   </energy>
  </scstep>
  <scstep>
   <time name="diag">    0.30    0.30</time>
   <time name="diis">    0.69    0.69</time>
   <time name="orth">    0.02    0.02</time>
   <time name="total">    1.01    1.01</time>
   <energy>
    <i name="e_fr_energy">   -106.59877962 </i>
    <i name="e_wo_entrp">   -106.56462870 </i>
    <i name="e_0_energy">   -106.58739598 </i>
   </energy>
  </scstep>
  <scstep>
   <time name="diag">    0.30    0.30</time>
   <time name="diis">    0.69    0.69</time>
   <time name="orth">    0.02    0.02</time>
   <time name="total">    1.01    1.01</time>
   <energy>
    <i name="e_fr_energy">   -113.41701922 </i>
    <i name="e_wo_entrp">   -113.42304285 </i>
    <i name="e_0_energy">   -113.41902709 </i>
   </energy>
  </scstep>
  <scstep>
   <time name="diag">    0.30    0.30</time>
   <time name="diis">    0.69    0.69</time>
   <time name="orth">    0.02    0.02</time>
   <time name="total">    1.01    1.01</time>
   <energy>
    <i name="e_fr_energy">   -116.55486626 </i>
    <i name="e_wo_entrp">   -116.57417057 </i>
    <i name="e_0_energy">   -116.56130103 </i>
   </energy>
  </scstep>
  <scstep>
   <time name="diag">    0.30    0.30</time>
   <time name="diis">    0.70    0.70</time>
   <time name="orth">    0.02    0.02</time>
   <time name="total">    1.02    1.02</time>
   <energy>
    <i name="e_fr_energy">   -118.04747960 </i>
    <i name="e_wo_entrp">   -118.08133373 </i>
    <i name="e_0_energy">   -118.05876431 </i>
   </energy>
  </scstep>
  <scstep>
   <time name="diag">    0.30    0.30</time>
   <time name="diis">    0.70    0.70</time>
   <time name="orth">    0.02    0.02</time>
   <time name="total">    1.02    1.02</time>
   <energy>
    <i name="e_fr_energy">   -118.83455737 </i>
    <i name="e_wo_entrp">   -118.86754116 </i>
    <i name="e_0_energy">   -118.84555197 </i>
   </energy>
  </scstep>
  <scstep>
   <time name="diag">    0.30    0.30</time>
   <time name="diis">    1.66    1.66</time>
   <time name="orth">    0.02    0.02</time>
   <time name="total">    1.98    1.98</time>
   <energy>
    <i name="e_fr_energy">   -119.64383435 </i>
    <i name="e_wo_entrp">   -119.67434339 </i>
    <i name="e_0_energy">   -119.65400403 </i>
   </energy>
  </scstep>
  <scstep>
   <time name="diag">    0.30    0.30</time>
   <time name="diis">    1.35    1.35</time>
   <time name="orth">    0.02    0.02</time>
   <time name="total">    1.67    1.67</time>
   <energy>
    <i name="e_fr_energy">   -119.71363338 </i>
    <i name="e_wo_entrp">   -119.74247270 </i>
    <i name="e_0_energy">   -119.72324649 </i>
   </energy>
  </scstep>
  <scstep>
   <time name="diag">    0.30    0.30</time>
   <time name="diis">    1.11    1.11</time>
   <time name="orth">    0.02    0.02</time>
   <time name="total">    1.43    1.43</time>
   <energy>
    <i name="e_fr_energy">   -119.71750303 </i>
    <i name="e_wo_entrp">   -119.74621500 </i>
    <i name="e_0_energy">   -119.72707368 </i>
   </energy>
  </scstep>
  <scstep>
   <time name="diag">    0.30    0.30</time>
   <time name="diis">    0.97    0.97</time>
   <time name="orth">    0.02    0.02</time>
   <time name="total">    1.48    1.48</time>
   <energy>
    <i name="e_fr_energy">   -119.71757672 </i>
    <i name="e_wo_entrp">   -119.74653922 </i>
    <i name="e_0_energy">   -119.72723089 </i>
   </energy>
  </scstep>
  <scstep>
   <time name="diag">    0.30    0.30</time>
   <time name="diis">    1.81    1.81</time>
   <time name="orth">    0.02    0.02</time>
   <time name="total">    2.48    2.48</time>
   <energy>
    <i name="e_fr_energy">   -156.29862181 </i>
    <i name="e_wo_entrp">   -156.27667961 </i>
    <i name="e_0_energy">   -156.29130774 </i>
   </energy>
  </scstep>
  <scstep>
   <time name="diag">    0.30    0.30</time>
   <time name="diis">    1.21    1.21</time>
   <time name="orth">    0.02    0.02</time>
   <time name="total">    1.89    1.89</time>
   <energy>
    <i name="e_fr_energy">   -123.46651165 </i>
    <i name="e_wo_entrp">   -123.44659218 </i>
    <i name="e_0_energy">   -123.45987183 </i>
   </energy>
  </scstep>
  <scstep>
   <time name="diag">    0.30    0.30</time>
   <time name="diis">    1.23    1.23</time>
   <time name="orth">    0.02    0.02</time>
   <time name="total">    1.91    1.91</time>
   <energy>
    <i name="e_fr_energy">   -114.78058173 </i>
    <i name="e_wo_entrp">   -114.78810375 </i>
    <i name="e_0_energy">   -114.78308907 </i>
   </energy>
  </scstep>
  <scstep>
   <time name="diag">    0.30    0.30</time>
   <time name="diis">    1.29    1.29</time>
   <time name="orth">    0.02    0.02</time>
   <time name="total">    1.97    1.97</time>
   <energy>
    <i name="e_fr_energy">   -114.88256336 </i>
    <i name="e_wo_entrp">   -114.88846376 </i>
    <i name="e_0_energy">   -114.88453016 </i>
   </energy>
  </scstep>
  <scstep>
   <time name="diag">    0.31    0.31</time>
   <time name="diis">    1.34    1.34</time>
   <time name="orth">    0.02    0.02</time>
   <time name="total">    2.03    2.05</time>
   <energy>
    <i name="e_fr_energy">   -114.85964763 </i>
    <i name="e_wo_entrp">   -114.86544825 </i>
    <i name="e_0_energy">   -114.86158117 </i>
   </energy>
  </scstep>
  <scstep>
   <time name="diag">    0.30    0.30</time>
   <time name="diis">    1.22    1.23</time>
   <time name="orth">    0.02    0.02</time>
   <time name="total">    1.90    1.90</time>
   <energy>
    <i name="e_fr_energy">   -114.88280597 </i>
    <i name="e_wo_entrp">   -114.88746811 </i>
    <i name="e_0_energy">   -114.88436001 </i>
   </energy>
  </scstep>
  <scstep>
   <time name="diag">    0.30    0.30</time>
   <time name="diis">    1.23    1.23</time>
   <time name="orth">    0.02    0.02</time>
   <time name="total">    1.91    1.91</time>
   <energy>
    <i name="e_fr_energy">   -114.86645222 </i>
    <i name="e_wo_entrp">   -114.87246268 </i>
    <i name="e_0_energy">   -114.86845571 </i>
   </energy>
  </scstep>
  <scstep>
   <time name="diag">    0.30    0.30</time>
   <time name="diis">    1.22    1.22</time>
   <time name="orth">    0.02    0.02</time>
   <time name="total">    1.89    1.90</time>
   <energy>
    <i name="e_fr_energy">   -114.85875215 </i>
    <i name="e_wo_entrp">   -114.86471196 </i>
    <i name="e_0_energy">   -114.86073875 </i>
   </energy>
  </scstep>
  <scstep>
   <time name="diag">    0.30    0.30</time>
   <time name="diis">    1.19    1.19</time>
   <time name="orth">    0.02    0.02</time>
   <time name="total">    1.87    1.87</time>
   <energy>
    <i name="e_fr_energy">   -114.85659099 </i>
    <i name="e_wo_entrp">   -114.86238364 </i>
    <i name="e_0_energy">   -114.85852187 </i>
   </energy>
  </scstep>
  <scstep>
   <time name="diag">    0.30    0.30</time>
   <time name="diis">    0.89    0.89</time>
   <time name="orth">    0.02    0.02</time>
   <time name="total">    1.38    1.38</time>
   <energy>
    <i name="alphaZ">     15.76595319 </i>
    <i name="ewald">  -2790.46487527 </i>
    <i name="hartreedc">   -731.18808241 </i>
    <i name="XCdc">   -742.90015995 </i>
    <i name="pawpsdc">   2148.64827446 </i>
    <i name="pawaedc">  -1334.67739884 </i>
    <i name="eentropy">      0.00574659 </i>
    <i name="bandstr">    322.87752636 </i>
    <i name="atom">   2997.07640482 </i>
    <i name="e_fr_energy">   -114.85661105 </i>
    <i name="e_wo_entrp">   -114.86235764 </i>
    <i name="e_0_energy">   -114.85852658 </i>
   </energy>
  </scstep>
  <structure>
   <crystal>
    <varray name="basis" >
     <v>       8.08704000       0.00000000       0.00000000 </v>
     <v>       0.00000000       8.08704000       0.00000000 </v>
     <v>       0.00000000       0.00000000       8.08704000 </v>
    </varray>
    <i name="volume">    528.89416249 </i>
    <varray name="rec_basis" >
     <v>       0.12365464       0.00000000       0.00000000 </v>
     <v>       0.00000000       0.12365464       0.00000000 </v>
     <v>       0.00000000       0.00000000       0.12365464 </v>
    </varray>
   </crystal>
   <varray name="positions" >
    <v>       0.99582100       0.99170200       0.99889800 </v>
    <v>       0.24618400       0.99937100       0.24821200 </v>
    <v>       0.24666100       0.25000000       0.00158300 </v>
    <v>       0.00301100       0.25000000       0.24822900 </v>
    <v>       0.50326600       0.99576800       0.99663900 </v>
    <v>       0.75336100       0.99576800       0.24673400 </v>
    <v>       0.75400100       0.25000000       0.99599900 </v>
    <v>       0.99582100       0.50829800       0.99889800 </v>
    <v>       0.24618400       0.50062900       0.24821200 </v>
    <v>       0.24611500       0.75000000       0.99764700 </v>
    <v>       0.99643200       0.75000000       0.24674800 </v>
    <v>       0.50326600       0.50423200       0.99663900 </v>
    <v>       0.75336100       0.50423200       0.24673400 </v>
    <v>       0.75659200       0.75000000       0.99340800 </v>
    <v>       0.50042600       0.75000000       0.24957400 </v>
    <v>       0.00115200       0.99985600       0.50152900 </v>
    <v>       0.24847100       0.99985600       0.74884800 </v>
    <v>       0.99563900       0.25000000       0.75436100 </v>
    <v>       0.50178800       0.99937100       0.50381600 </v>
    <v>       0.75110200       0.99170200       0.75417900 </v>
    <v>       0.74841700       0.25000000       0.50333900 </v>
    <v>       0.50177100       0.25000000       0.74698900 </v>
    <v>       0.00115200       0.50014400       0.50152900 </v>
    <v>       0.24847100       0.50014400       0.74884800 </v>
    <v>       0.24946600       0.75000000       0.50053400 </v>
    <v>       0.99274400       0.75000000       0.75725600 </v>
    <v>       0.50178800       0.50062900       0.50381600 </v>
    <v>       0.75110200       0.50829800       0.75417900 </v>
    <v>       0.75235300       0.75000000       0.50388500 </v>
    <v>       0.50325200       0.75000000       0.75356800 </v>
    <v>       0.25083300       0.25000000       0.49916700 </v>
   </varray>
  </structure>
  <varray name="forces" >
   <v>       0.21947077       0.36323311      -0.06469872 </v>
   <v>       0.31627222       0.34160543       0.21070231 </v>
   <v>       0.28423617       0.00000000      -0.00690434 </v>
   <v>       0.00255343       0.00000000       0.25976411 </v>
   <v>      -0.16405452       0.36327443       0.31150829 </v>
   <v>      -0.31150829       0.36327443       0.16405452 </v>
   <v>      -0.30769312       0.00000000       0.30769312 </v>
   <v>       0.21947077      -0.36323311      -0.06469872 </v>
   <v>       0.31627222      -0.34160543       0.21070231 </v>
   <v>       0.15746746       0.00000000      -0.06035643 </v>
   <v>       0.12372230       0.00000000       0.31120525 </v>
   <v>      -0.16405452      -0.36327443       0.31150829 </v>
   <v>      -0.31150829      -0.36327443       0.16405452 </v>
   <v>      -0.38280596       0.00000000       0.38280596 </v>
   <v>       0.02691126       0.00000000      -0.02691126 </v>
   <v>       0.15196260       0.16041145       0.05787030 </v>
   <v>      -0.05787030       0.16041145      -0.15196260 </v>
   <v>       0.25078153       0.00000000      -0.25078153 </v>
   <v>      -0.21070231       0.34160543      -0.31627222 </v>
   <v>       0.06469872       0.36323311      -0.21947077 </v>
   <v>       0.00690434       0.00000000      -0.28423617 </v>
   <v>      -0.25976411       0.00000000      -0.00255343 </v>
   <v>       0.15196260      -0.16041145       0.05787030 </v>
   <v>      -0.05787030      -0.16041145      -0.15196260 </v>
   <v>      -0.13657196       0.00000000       0.13657196 </v>
   <v>       0.49745867       0.00000000      -0.49745867 </v>
   <v>      -0.21070231      -0.34160543      -0.31627222 </v>
   <v>       0.06469872      -0.36323311      -0.21947077 </v>
   <v>       0.06035643       0.00000000      -0.15746746 </v>
   <v>      -0.31120525       0.00000000      -0.12372230 </v>
   <v>      -0.02888899       0.00000000       0.02888899 </v>
  </varray>
  <varray name="stress" >
   <v>     -14.80768792       0.00000000      -6.25649864 </v>
   <v>       0.00000000     -12.13716553       0.00000000 </v>
   <v>      -6.25649864       0.00000000     -14.80768792 </v>
  </varray>
  <energy>
   <i name="e_fr_energy">   -114.85661105 </i>
   <i name="e_wo_entrp">   -114.85852658 </i>
   <i name="e_0_energy">      0.00574659 </i>
  </energy>
  <time name="totalsc">   36.46   36.52</time>
 </calculation>
 <calculation>
  <scstep>
   <time name="diag">    0.30    0.30</time>
   <time name="diis">    1.23    1.23</time>
   <time name="orth">    0.02    0.02</time>
   <time name="total">    1.90    1.90</time>
   <energy>
    <i name="alphaZ">     15.76595319 </i>
    <i name="ewald">  -2787.71963715 </i>
    <i name="hartreedc">   -734.54721039 </i>
    <i name="XCdc">   -742.95629693 </i>
    <i name="pawpsdc">   2148.59312840 </i>
    <i name="pawaedc">  -1334.61238972 </i>
    <i name="eentropy">     -0.00455384 </i>
    <i name="bandstr">    323.35023862 </i>
    <i name="atom">   2997.07640482 </i>
    <i name="e_fr_energy">   -115.05436300 </i>
    <i name="e_wo_entrp">   -115.04980916 </i>
    <i name="e_0_energy">   -115.05284505 </i>
   </energy>
  </scstep>
  <scstep>
   <time name="diag">    0.30    0.30</time>
   <time name="diis">    1.26    1.26</time>
   <time name="orth">    0.02    0.02</time>
   <time name="total">    1.94    1.94</time>
   <energy>
    <i name="e_fr_energy">   -115.04812367 </i>
    <i name="e_wo_entrp">   -115.04606013 </i>
    <i name="e_0_energy">   -115.04743583 </i>
   </energy>
  </scstep>
  <scstep>
   <time name="diag">    0.30    0.30</time>
   <time name="diis">    1.30    1.30</time>
   <time name="orth">    0.02    0.02</time>
   <time name="total">    1.98    1.98</time>
   <energy>
    <i name="e_fr_energy">   -115.04786331 </i>
    <i name="e_wo_entrp">   -115.04585015 </i>
    <i name="e_0_energy">   -115.04719226 </i>
   </energy>
  </scstep>
  <scstep>
   <time name="diag">    0.30    0.30</time>
   <time name="diis">    1.02    1.02</time>
   <time name="orth">    0.02    0.02</time>
   <time name="total">    1.50    1.50</time>
   <energy>
    <i name="alphaZ">     15.76595319 </i>
    <i name="ewald">  -2787.71963715 </i>
    <i name="hartreedc">   -734.40811119 </i>
    <i name="XCdc">   -742.98506461 </i>
    <i name="pawpsdc">   2149.37473150 </i>
    <i name="pawaedc">  -1335.42124194 </i>
    <i name="eentropy">     -0.00194239 </i>
    <i name="bandstr">    323.27108696 </i>
    <i name="atom">   2997.07640482 </i>
    <i name="e_fr_energy">   -115.04782081 </i>
    <i name="e_wo_entrp">   -115.04587841 </i>
    <i name="e_0_energy">   -115.04717334 </i>
   </energy>
  </scstep>
  <structure>
   <crystal>
    <varray name="basis" >
     <v>       8.08704000       0.00000000       0.00000000 </v>
     <v>       0.00000000       8.08704000       0.00000000 </v>
     <v>       0.00000000       0.00000000       8.08704000 </v>
    </varray>
    <i name="volume">    528.89416249 </i>
    <varray name="rec_basis" >
     <v>       0.12365464       0.00000000       0.00000000 </v>
     <v>       0.00000000       0.12365464       0.00000000 </v>
     <v>       0.00000000       0.00000000       0.12365464 </v>
    </varray>
   </crystal>
   <varray name="positions" >
    <v>       0.99713024       0.99386884       0.99851204 </v>
    <v>       0.24807070       0.00140882       0.24946893 </v>
    <v>       0.24835659       0.25000000       0.00154181 </v>
    <v>       0.00302623       0.25000000       0.24977860 </v>
    <v>       0.50228734       0.99793509       0.99849728 </v>
    <v>       0.75150272       0.99793509       0.24771266 </v>
    <v>       0.75216548       0.25000000       0.99783452 </v>
    <v>       0.99713024       0.50613116       0.99851204 </v>
    <v>       0.24807070       0.49859118       0.24946893 </v>
    <v>       0.24705436       0.75000000       0.99728695 </v>
    <v>       0.99717006       0.75000000       0.24860447 </v>
    <v>       0.50228734       0.50206491       0.99849728 </v>
    <v>       0.75150272       0.50206491       0.24771266 </v>
    <v>       0.75430840       0.75000000       0.99569160 </v>
    <v>       0.50058654       0.75000000       0.24941346 </v>
    <v>       0.00205852       0.00081292       0.50187422 </v>
    <v>       0.24812578       0.00081292       0.74794148 </v>
    <v>       0.99713502       0.25000000       0.75286498 </v>
    <v>       0.50053107       0.00140882       0.50192930 </v>
    <v>       0.75148796       0.99386884       0.75286976 </v>
    <v>       0.74845819       0.25000000       0.50164341 </v>
    <v>       0.50022140       0.25000000       0.74697377 </v>
    <v>       0.00205852       0.49918708       0.50187422 </v>
    <v>       0.24812578       0.49918708       0.74794148 </v>
    <v>       0.24865129       0.75000000       0.50134871 </v>
    <v>       0.99571155       0.75000000       0.75428845 </v>
    <v>       0.50053107       0.49859118       0.50192930 </v>
    <v>       0.75148796       0.50613116       0.75286976 </v>
    <v>       0.75271305       0.75000000       0.50294564 </v>
    <v>       0.50139553       0.75000000       0.75282994 </v>
    <v>       0.25066066       0.25000000       0.49933934 </v>
   </varray>
  </structure>
  <varray name="forces" >
   <v>       0.13334549       0.21972875      -0.03438497 </v>
   <v>       0.24582354       0.29127397       0.17055237 </v>
   <v>       0.20840149       0.00000000       0.03323681 </v>
   <v>       0.03252442       0.00000000       0.17494500 </v>
   <v>      -0.11846880       0.26541894       0.21364601 </v>
   <v>      -0.21364601       0.26541894       0.11846880 </v>
   <v>      -0.21186496       0.00000000       0.21186496 </v>
   <v>       0.13334549      -0.21972875      -0.03438497 </v>
   <v>       0.24582354      -0.29127397       0.17055237 </v>
   <v>       0.09202536       0.00000000      -0.03414584 </v>
   <v>       0.08896640       0.00000000       0.18343676 </v>
   <v>      -0.11846880      -0.26541894       0.21364601 </v>
   <v>      -0.21364601      -0.26541894       0.11846880 </v>
   <v>      -0.20119384       0.00000000       0.20119384 </v>
   <v>       0.01329775       0.00000000      -0.01329775 </v>
   <v>       0.09932395       0.11328160       0.01423476 </v>
   <v>      -0.01423476       0.11328160      -0.09932395 </v>
   <v>       0.16564412       0.00000000      -0.16564412 </v>
   <v>      -0.17055237       0.29127397      -0.24582354 </v>
   <v>       0.03438497       0.21972875      -0.13334549 </v>
   <v>      -0.03323681       0.00000000      -0.20840149 </v>
   <v>      -0.17494500       0.00000000      -0.03252442 </v>
   <v>       0.09932395      -0.11328160       0.01423476 </v>
   <v>      -0.01423476      -0.11328160      -0.09932395 </v>
   <v>      -0.07450333       0.00000000       0.07450333 </v>
   <v>       0.27088784       0.00000000      -0.27088784 </v>
   <v>      -0.17055237      -0.29127397      -0.24582354 </v>
   <v>       0.03438497      -0.21972875      -0.13334549 </v>
   <v>       0.03414584       0.00000000      -0.09202536 </v>
   <v>      -0.18343676       0.00000000      -0.08896640 </v>
   <v>      -0.01866452       0.00000000       0.01866452 </v>
  </varray>
  <varray name="stress" >
   <v>     -17.77656964       0.00000000      -5.60905108 </v>
   <v>       0.00000000     -14.90891932       0.00000000 </v>
   <v>      -5.60905108       0.00000000     -17.77656964 </v>
  </varray>
  <energy>
   <i name="e_fr_energy">   -115.04782081 </i>
   <i name="e_wo_entrp">   -115.04717334 </i>
   <i name="e_0_energy">     -0.00194239 </i>
  </energy>
  <time name="totalsc">    9.73    9.74</time>
 </calculation>
 <calculation>
  <scstep>
   <time name="diag">    0.30    0.30</time>
   <time name="diis">    1.22    1.22</time>
   <time name="orth">    0.02    0.02</time>
   <time name="total">    1.89    1.90</time>
   <energy>
    <i name="alphaZ">     15.76595319 </i>
    <i name="ewald">  -2779.12396539 </i>
    <i name="hartreedc">   -743.38386842 </i>
    <i name="XCdc">   -743.07400227 </i>
    <i name="pawpsdc">   2149.35539583 </i>
    <i name="pawaedc">  -1335.38025733 </i>
    <i name="eentropy">     -0.02511748 </i>
    <i name="bandstr">    323.54240909 </i>
    <i name="atom">   2997.07640482 </i>
    <i name="e_fr_energy">   -115.24704795 </i>
    <i name="e_wo_entrp">   -115.22193047 </i>
    <i name="e_0_energy">   -115.23867545 </i>
   </energy>
  </scstep>
  <scstep>
   <time name="diag">    0.30    0.30</time>
   <time name="diis">    1.26    1.26</time>
   <time name="orth">    0.02    0.02</time>
   <time name="total">    1.94    1.94</time>
   <energy>
    <i name="e_fr_energy">   -115.21980112 </i>
    <i name="e_wo_entrp">   -115.19956216 </i>
    <i name="e_0_energy">   -115.21305480 </i>
   </energy>
  </scstep>
  <scstep>
   <time name="diag">    0.30    0.30</time>
   <time name="diis">    1.43    1.43</time>
   <time name="orth">    0.02    0.02</time>
   <time name="total">    2.12    2.12</time>
   <energy>
    <i name="e_fr_energy">   -115.21910965 </i>
    <i name="e_wo_entrp">   -115.19836861 </i>
    <i name="e_0_energy">   -115.21219597 </i>
   </energy>
  </scstep>
  <scstep>
   <time name="diag">    0.31    0.31</time>
   <time name="diis">    1.21    1.21</time>
   <time name="orth">    0.02    0.02</time>
   <time name="total">    1.90    1.90</time>
   <energy>
    <i name="e_fr_energy">   -115.21866317 </i>
    <i name="e_wo_entrp">   -115.19812056 </i>
    <i name="e_0_energy">   -115.21181563 </i>
   </energy>
  </scstep>
  <scstep>
   <time name="diag">    0.30    0.30</time>
   <time name="diis">    1.09    1.09</time>
   <time name="orth">    0.02    0.02</time>
   <time name="total">    1.77    1.78</time>
   <energy>
    <i name="e_fr_energy">   -115.21856087 </i>
    <i name="e_wo_entrp">   -115.19776047 </i>
    <i name="e_0_energy">   -115.21162741 </i>
   </energy>
  </scstep>
  <scstep>
   <time name="diag">    0.30    0.30</time>
   <time name="diis">    0.82    0.82</time>
   <time name="orth">    0.02    0.02</time>
   <time name="total">    1.31    1.31</time>
   <energy>
    <i name="alphaZ">     15.76595319 </i>
    <i name="ewald">  -2779.12396539 </i>
    <i name="hartreedc">   -743.09422637 </i>
    <i name="XCdc">   -743.13674249 </i>
    <i name="pawpsdc">   2151.58740326 </i>
    <i name="pawaedc">  -1337.65608108 </i>
    <i name="eentropy">     -0.02078364 </i>
    <i name="bandstr">    323.38345286 </i>
    <i name="atom">   2997.07640482 </i>
    <i name="e_fr_energy">   -115.21858482 </i>
    <i name="e_wo_entrp">   -115.19780119 </i>
    <i name="e_0_energy">   -115.21165694 </i>
   </energy>
  </scstep>
  <structure>
   <crystal>
    <varray name="basis" >
     <v>       8.08704000       0.00000000       0.00000000 </v>
     <v>       0.00000000       8.08704000       0.00000000 </v>
     <v>       0.00000000       0.00000000       8.08704000 </v>
    </varray>
    <i name="volume">    528.89416249 </i>
    <varray name="rec_basis" >
     <v>       0.12365464       0.00000000       0.00000000 </v>
     <v>       0.00000000       0.12365464       0.00000000 </v>
     <v>       0.00000000       0.00000000       0.12365464 </v>
    </varray>
   </crystal>
   <varray name="positions" >
    <v>       0.99986266       0.99839111       0.99770654 </v>
    <v>       0.25200831       0.00566183       0.25209219 </v>
    <v>       0.25189535       0.25000000       0.00145585 </v>
    <v>       0.00305802       0.25000000       0.25301268 </v>
    <v>       0.50024486       0.00245787       0.00237558 </v>
    <v>       0.74762442       0.00245787       0.24975514 </v>
    <v>       0.74833468       0.25000000       0.00166532 </v>
    <v>       0.99986266       0.50160889       0.99770654 </v>
    <v>       0.25200831       0.49433817       0.25209219 </v>
    <v>       0.24901484       0.75000000       0.99653551 </v>
    <v>       0.99871041       0.75000000       0.25247900 </v>
    <v>       0.50024486       0.49754213       0.00237558 </v>
    <v>       0.74762442       0.49754213       0.24975514 </v>
    <v>       0.74954244       0.75000000       0.00045756 </v>
    <v>       0.50092158       0.75000000       0.24907842 </v>
    <v>       0.00395047       0.00281005       0.50259471 </v>
    <v>       0.24740529       0.00281005       0.74604953 </v>
    <v>       0.00025726       0.25000000       0.74974274 </v>
    <v>       0.49790781       0.00566183       0.49799169 </v>
    <v>       0.75229346       0.99839111       0.75013734 </v>
    <v>       0.74854415       0.25000000       0.49810465 </v>
    <v>       0.49698732       0.25000000       0.74694198 </v>
    <v>       0.00395047       0.49718995       0.50259471 </v>
    <v>       0.24740529       0.49718995       0.74604953 </v>
    <v>       0.24695096       0.75000000       0.50304904 </v>
    <v>       0.00190494       0.75000000       0.74809506 </v>
    <v>       0.49790781       0.49433817       0.49799169 </v>
    <v>       0.75229346       0.50160889       0.75013734 </v>
    <v>       0.75346449       0.75000000       0.50098516 </v>
    <v>       0.49752100       0.75000000       0.75128959 </v>
    <v>       0.25030100       0.25000000       0.49969900 </v>
   </varray>
  </structure>
  <varray name="forces" >
   <v>      -0.02655997      -0.03656810       0.02640433 </v>
   <v>       0.09200333       0.18991919       0.09133183 </v>
   <v>       0.03183001       0.00000000       0.10739723 </v>
   <v>       0.09521188       0.00000000      -0.00176253 </v>
   <v>      -0.02506684       0.06655639       0.02961613 </v>
   <v>      -0.02961613       0.06655639       0.02506684 </v>
   <v>      -0.02629439       0.00000000       0.02629439 </v>
   <v>      -0.02655997       0.03656810       0.02640433 </v>
   <v>       0.09200333      -0.18991919       0.09133183 </v>
   <v>      -0.04436543       0.00000000       0.03118032 </v>
   <v>       0.04188357       0.00000000      -0.07144307 </v>
   <v>      -0.02506684      -0.06655639       0.02961613 </v>
   <v>      -0.02961613      -0.06655639       0.02506684 </v>
   <v>       0.11547347       0.00000000      -0.11547347 </v>
   <v>      -0.04152355       0.00000000       0.04152355 </v>
   <v>       0.00051452       0.02529219      -0.08178313 </v>
   <v>       0.08178313       0.02529219      -0.00051452 </v>
   <v>       0.01097587       0.00000000      -0.01097587 </v>
   <v>      -0.09133183       0.18991919      -0.09200333 </v>
   <v>      -0.02640433      -0.03656810       0.02655997 </v>
   <v>      -0.10739723       0.00000000      -0.03183001 </v>
   <v>       0.00176253       0.00000000      -0.09521188 </v>
   <v>       0.00051452      -0.02529219      -0.08178313 </v>
   <v>       0.08178313      -0.02529219      -0.00051452 </v>
   <v>       0.08389357       0.00000000      -0.08389357 </v>
   <v>      -0.15180932       0.00000000       0.15180932 </v>
   <v>      -0.09133183      -0.18991919      -0.09200333 </v>
   <v>      -0.02640433       0.03656810       0.02655997 </v>
   <v>      -0.03118032       0.00000000       0.04436543 </v>
   <v>       0.07144307       0.00000000      -0.04188357 </v>
   <v>      -0.00054747       0.00000000       0.00054747 </v>
  </varray>
  <varray name="stress" >
   <v>     -17.30736075       0.00000000      -4.15857800 </v>
   <v>       0.00000000     -16.54341379       0.00000000 </v>
   <v>      -4.15857800       0.00000000     -17.30736075 </v>
  </varray>
  <energy>
   <i name="e_fr_energy">   -115.21858482 </i>
   <i name="e_wo_entrp">   -115.21165694 </i>
   <i name="e_0_energy">     -0.02078364 </i>
  </energy>
  <time name="totalsc">   13.35   13.41</time>
 </calculation>
 <calculation>
  <scstep>
   <time name="diag">    0.30    0.30</time>
   <time name="diis">    1.25    1.25</time>
   <time name="orth">    0.02    0.02</time>
   <time name="total">    1.94    1.94</time>
   <energy>
    <i name="alphaZ">     15.76595319 </i>
    <i name="ewald">  -2777.29284494 </i>
    <i name="hartreedc">   -744.92804161 </i>
    <i name="XCdc">   -743.15087525 </i>
    <i name="pawpsdc">   2151.60397120 </i>
    <i name="pawaedc">  -1337.67468033 </i>
    <i name="eentropy">     -0.02033637 </i>
    <i name="bandstr">    323.37617938 </i>
    <i name="atom">   2997.07640482 </i>
    <i name="e_fr_energy">   -115.24426990 </i>
    <i name="e_wo_entrp">   -115.22393353 </i>
    <i name="e_0_energy">   -115.23749111 </i>
   </energy>
  </scstep>
  <scstep>
   <time name="diag">    0.30    0.30</time>
   <time name="diis">    1.27    1.27</time>
   <time name="orth">    0.02    0.02</time>
   <time name="total">    1.95    1.96</time>
   <energy>
    <i name="e_fr_energy">   -115.24316022 </i>
    <i name="e_wo_entrp">   -115.22327734 </i>
    <i name="e_0_energy">   -115.23653259 </i>
   </energy>
  </scstep>
  <scstep>
   <time name="diag">    0.31    0.31</time>
   <time name="diis">    1.23    1.23</time>
   <time name="orth">    0.02    0.02</time>
   <time name="total">    1.72    1.72</time>
   <energy>
    <i name="alphaZ">     15.76595319 </i>
    <i name="ewald">  -2777.29284494 </i>
    <i name="hartreedc">   -744.82866530 </i>
    <i name="XCdc">   -743.16187569 </i>
    <i name="pawpsdc">   2151.95249398 </i>
    <i name="pawaedc">  -1338.00462864 </i>
    <i name="eentropy">     -0.02002245 </i>
    <i name="bandstr">    323.27010351 </i>
    <i name="atom">   2997.07640482 </i>
    <i name="e_fr_energy">   -115.24308153 </i>
    <i name="e_wo_entrp">   -115.22305907 </i>
    <i name="e_0_energy">   -115.23640738 </i>
   </energy>
  </scstep>
  <structure>
   <crystal>
    <varray name="basis" >
     <v>       8.08704000       0.00000000       0.00000000 </v>
     <v>       0.00000000       8.08704000       0.00000000 </v>
     <v>       0.00000000       0.00000000       8.08704000 </v>
    </varray>
    <i name="volume">    528.89416249 </i>
    <varray name="rec_basis" >
     <v>       0.12365464       0.00000000       0.00000000 </v>
     <v>       0.00000000       0.12365464       0.00000000 </v>
     <v>       0.00000000       0.00000000       0.12365464 </v>
    </varray>
   </crystal>
   <varray name="positions" >
    <v>       0.99971314       0.99820613       0.99790768 </v>
    <v>       0.25289439       0.00738450       0.25293649 </v>
    <v>       0.25226168       0.25000000       0.00236158 </v>
    <v>       0.00386395       0.25000000       0.25308661 </v>
    <v>       0.49997680       0.00314487       0.00273252 </v>
    <v>       0.74726748       0.00314487       0.25002320 </v>
    <v>       0.74800713       0.25000000       0.00199287 </v>
    <v>       0.99971314       0.50179387       0.99790768 </v>
    <v>       0.25289439       0.49261550       0.25293649 </v>
    <v>       0.24869356       0.75000000       0.99677851 </v>
    <v>       0.99910686       0.75000000       0.25198134 </v>
    <v>       0.49997680       0.49685513       0.00273252 </v>
    <v>       0.74726748       0.49685513       0.25002320 </v>
    <v>       0.75038791       0.75000000      -0.00038791 </v>
    <v>       0.50057969       0.75000000       0.24942031 </v>
    <v>       0.00400678       0.00307877       0.50192299 </v>
    <v>       0.24807701       0.00307877       0.74599322 </v>
    <v>       0.00043583       0.25000000       0.74956417 </v>
    <v>       0.49706351       0.00738450       0.49710561 </v>
    <v>       0.75209232       0.99820613       0.75028686 </v>
    <v>       0.74763842       0.25000000       0.49773832 </v>
    <v>       0.49691339       0.25000000       0.74613605 </v>
    <v>       0.00400678       0.49692123       0.50192299 </v>
    <v>       0.24807701       0.49692123       0.74599322 </v>
    <v>       0.24761361       0.75000000       0.50238639 </v>
    <v>       0.00079144       0.75000000       0.74920856 </v>
    <v>       0.49706351       0.49261550       0.49710561 </v>
    <v>       0.75209232       0.50179387       0.75028686 </v>
    <v>       0.75322149       0.75000000       0.50130644 </v>
    <v>       0.49801866       0.75000000       0.75089314 </v>
    <v>       0.25028649       0.25000000       0.49971351 </v>
   </varray>
  </structure>
  <varray name="forces" >
   <v>      -0.00593590      -0.00984988       0.03181576 </v>
   <v>       0.06548613       0.13784212       0.05903689 </v>
   <v>       0.01380941       0.00000000       0.05638624 </v>
   <v>       0.05021688       0.00000000      -0.00995373 </v>
   <v>      -0.01138118       0.03745956       0.02050587 </v>
   <v>      -0.02050587       0.03745956       0.01138118 </v>
   <v>      -0.01709784       0.00000000       0.01709784 </v>
   <v>      -0.00593590       0.00984988       0.03181576 </v>
   <v>       0.06548613      -0.13784212       0.05903689 </v>
   <v>      -0.02166602       0.00000000       0.03359555 </v>
   <v>       0.03968094       0.00000000      -0.04996016 </v>
   <v>      -0.01138118      -0.03745956       0.02050587 </v>
   <v>      -0.02050587      -0.03745956       0.01138118 </v>
   <v>       0.05134854       0.00000000      -0.05134854 </v>
   <v>      -0.01817130       0.00000000       0.01817130 </v>
   <v>      -0.00352036       0.00677192      -0.04545400 </v>
   <v>       0.04545400       0.00677192       0.00352036 </v>
   <v>       0.01027020       0.00000000      -0.01027020 </v>
   <v>      -0.05903689       0.13784212      -0.06548613 </v>
   <v>      -0.03181576      -0.00984988       0.00593590 </v>
   <v>      -0.05638624       0.00000000      -0.01380941 </v>
   <v>       0.00995373       0.00000000      -0.05021688 </v>
   <v>      -0.00352036      -0.00677192      -0.04545400 </v>
   <v>       0.04545400      -0.00677192       0.00352036 </v>
   <v>       0.04746483       0.00000000      -0.04746483 </v>
   <v>      -0.07390817       0.00000000       0.07390817 </v>
   <v>      -0.05903689      -0.13784212      -0.06548613 </v>
   <v>      -0.03181576       0.00984988       0.00593590 </v>
   <v>      -0.03359555       0.00000000       0.02166602 </v>
   <v>       0.04996016       0.00000000      -0.03968094 </v>
   <v>      -0.00936790       0.00000000       0.00936790 </v>
  </varray>
  <varray name="stress" >
   <v>     -16.11235360       0.00000000      -4.10014189 </v>
   <v>       0.00000000     -16.22780121       0.00000000 </v>
   <v>      -4.10014189       0.00000000     -16.11235360 </v>
  </varray>
  <energy>
   <i name="e_fr_energy">   -115.24308153 </i>
   <i name="e_wo_entrp">   -115.23640738 </i>
   <i name="e_0_energy">     -0.02002245 </i>
  </energy>
  <time name="totalsc">    8.03    8.04</time>
 </calculation>
 <calculation>
  <scstep>
   <time name="diag">    0.30    0.30</time>
   <time name="diis">    1.24    1.24</time>
   <time name="orth">    0.02    0.02</time>
   <time name="total">    1.92    1.92</time>
   <energy>
    <i name="alphaZ">     15.76595319 </i>
    <i name="ewald">  -2773.86114264 </i>
    <i name="hartreedc">   -748.26927958 </i>
    <i name="XCdc">   -743.17712280 </i>
    <i name="pawpsdc">   2152.22532127 </i>
    <i name="pawaedc">  -1338.31930828 </i>
    <i name="eentropy">     -0.01898429 </i>
    <i name="bandstr">    323.31577753 </i>
    <i name="atom">   2997.07640482 </i>
    <i name="e_fr_energy">   -115.26238078 </i>
    <i name="e_wo_entrp">   -115.24339649 </i>
    <i name="e_0_energy">   -115.25605268 </i>
   </energy>
  </scstep>
  <scstep>
   <time name="diag">    0.30    0.30</time>
   <time name="diis">    1.25    1.25</time>
   <time name="orth">    0.02    0.02</time>
   <time name="total">    1.92    1.93</time>
   <energy>
    <i name="e_fr_energy">   -115.25914354 </i>
    <i name="e_wo_entrp">   -115.24075816 </i>
    <i name="e_0_energy">   -115.25301508 </i>
   </energy>
  </scstep>
  <scstep>
   <time name="diag">    0.30    0.30</time>
   <time name="diis">    1.27    1.27</time>
   <time name="orth">    0.02    0.02</time>
   <time name="total">    1.95    1.95</time>
   <energy>
    <i name="e_fr_energy">   -115.25889285 </i>
    <i name="e_wo_entrp">   -115.24035108 </i>
    <i name="e_0_energy">   -115.25271226 </i>
   </energy>
  </scstep>
  <scstep>
   <time name="diag">    0.30    0.30</time>
   <time name="diis">    0.84    0.84</time>
   <time name="orth">    0.02    0.02</time>
   <time name="total">    1.32    1.32</time>
   <energy>
    <i name="alphaZ">     15.76595319 </i>
    <i name="ewald">  -2773.86114264 </i>
    <i name="hartreedc">   -748.16642005 </i>
    <i name="XCdc">   -743.19438082 </i>
    <i name="pawpsdc">   2153.33481326 </i>
    <i name="pawaedc">  -1339.43866590 </i>
    <i name="eentropy">     -0.01862453 </i>
    <i name="bandstr">    323.24316100 </i>
    <i name="atom">   2997.07640482 </i>
    <i name="e_fr_energy">   -115.25890166 </i>
    <i name="e_wo_entrp">   -115.24027713 </i>
    <i name="e_0_energy">   -115.25269348 </i>
   </energy>
  </scstep>
  <structure>
   <crystal>
    <varray name="basis" >
     <v>       8.08704000       0.00000000       0.00000000 </v>
     <v>       0.00000000       8.08704000       0.00000000 </v>
     <v>       0.00000000       0.00000000       8.08704000 </v>
    </varray>
    <i name="volume">    528.89416249 </i>
    <varray name="rec_basis" >
     <v>       0.12365464       0.00000000       0.00000000 </v>
     <v>       0.00000000       0.12365464       0.00000000 </v>
     <v>       0.00000000       0.00000000       0.12365464 </v>
    </varray>
   </crystal>
   <varray name="positions" >
    <v>       0.99946074       0.99789387       0.99824719 </v>
    <v>       0.25439011       0.01029237       0.25436168 </v>
    <v>       0.25288006       0.25000000       0.00389046 </v>
    <v>       0.00522437       0.25000000       0.25321140 </v>
    <v>       0.49952433       0.00430451       0.00333504 </v>
    <v>       0.74666496       0.00430451       0.25047567 </v>
    <v>       0.74745422       0.25000000       0.00254578 </v>
    <v>       0.99946074       0.50210613       0.99824719 </v>
    <v>       0.25439011       0.48970763       0.25436168 </v>
    <v>       0.24815124       0.75000000       0.99718870 </v>
    <v>       0.99977607       0.75000000       0.25114128 </v>
    <v>       0.49952433       0.49569549       0.00333504 </v>
    <v>       0.74666496       0.49569549       0.25047567 </v>
    <v>       0.75181507       0.75000000      -0.00181507 </v>
    <v>       0.50000256       0.75000000       0.24999744 </v>
    <v>       0.00410185       0.00353236       0.50078912 </v>
    <v>       0.24921088       0.00353236       0.74589815 </v>
    <v>       0.00073725       0.25000000       0.74926275 </v>
    <v>       0.49563832       0.01029237       0.49560989 </v>
    <v>       0.75175281       0.99789387       0.75053926 </v>
    <v>       0.74610954       0.25000000       0.49711994 </v>
    <v>       0.49678860       0.25000000       0.74477563 </v>
    <v>       0.00410185       0.49646764       0.50078912 </v>
    <v>       0.24921088       0.49646764       0.74589815 </v>
    <v>       0.24873218       0.75000000       0.50126782 </v>
    <v>      -0.00108815       0.75000000       0.75108815 </v>
    <v>       0.49563832       0.48970763       0.49560989 </v>
    <v>       0.75175281       0.50210613       0.75053926 </v>
    <v>       0.75281130       0.75000000       0.50184876 </v>
    <v>       0.49885872       0.75000000       0.75022393 </v>
    <v>       0.25026200       0.25000000       0.49973800 </v>
   </varray>
  </structure>
  <varray name="forces" >
   <v>       0.02745288       0.03829089       0.04207541 </v>
   <v>       0.01785458       0.05079853       0.00129362 </v>
   <v>      -0.01777082       0.00000000      -0.03077706 </v>
   <v>      -0.02643838       0.00000000      -0.02475051 </v>
   <v>       0.01233390      -0.01163593       0.00416590 </v>
   <v>      -0.00416590      -0.01163593      -0.01233390 </v>
   <v>      -0.00010904       0.00000000       0.00010904 </v>
   <v>       0.02745288      -0.03829089       0.04207541 </v>
   <v>       0.01785458      -0.05079853       0.00129362 </v>
   <v>       0.01805405       0.00000000       0.03659895 </v>
   <v>       0.03396285       0.00000000      -0.01355316 </v>
   <v>       0.01233390       0.01163593       0.00416590 </v>
   <v>      -0.00416590       0.01163593      -0.01233390 </v>
   <v>      -0.06120648       0.00000000       0.06120648 </v>
   <v>       0.02031505       0.00000000      -0.02031505 </v>
   <v>      -0.01033669      -0.02405803       0.01229485 </v>
   <v>      -0.01229485      -0.02405803       0.01033669 </v>
   <v>       0.00725326       0.00000000      -0.00725326 </v>
   <v>      -0.00129362       0.05079853      -0.01785458 </v>
   <v>      -0.04207541       0.03829089      -0.02745288 </v>
   <v>       0.03077706       0.00000000       0.01777082 </v>
   <v>       0.02475051       0.00000000       0.02643838 </v>
   <v>      -0.01033669       0.02405803       0.01229485 </v>
   <v>      -0.01229485       0.02405803       0.01033669 </v>
   <v>      -0.01019094       0.00000000       0.01019094 </v>
   <v>       0.05793319       0.00000000      -0.05793319 </v>
   <v>      -0.00129362      -0.05079853      -0.01785458 </v>
   <v>      -0.04207541      -0.03829089      -0.02745288 </v>
   <v>      -0.03659895       0.00000000      -0.01805405 </v>
   <v>       0.01355316       0.00000000      -0.03396285 </v>
   <v>      -0.02923431       0.00000000       0.02923431 </v>
  </varray>
  <varray name="stress" >
   <v>     -17.18931047       0.00000000      -3.89274158 </v>
   <v>       0.00000000     -18.84287960       0.00000000 </v>
   <v>      -3.89274158       0.00000000     -17.18931047 </v>
  </varray>
  <energy>
   <i name="e_fr_energy">   -115.25890166 </i>
   <i name="e_wo_entrp">   -115.25269348 </i>
   <i name="e_0_energy">     -0.01862453 </i>
  </energy>
  <time name="totalsc">    9.34    9.35</time>
  <eigenvalues>
   <array>
    <dimension dim="1">band</dimension>
    <dimension dim="2">kpoint</dimension>
    <dimension dim="3">spin</dimension>
    <field>eigene</field>
    <field>occ</field>
    <set>
     <set comment="spin 1">
      <set comment="kpoint 1">
       <r>   -3.0394    1.0000 </r>
       <r>   -1.9765    1.0000 </r>
       <r>   -1.9242    1.0000 </r>
       <r>   -1.8055    1.0000 </r>
       <r>   -0.8651    1.0000 </r>
       <r>   -0.8044    1.0000 </r>
       <r>   -0.6236    1.0000 </r>
       <r>    0.2367    1.0000 </r>
       <r>    0.2736    1.0000 </r>
       <r>    0.3078    1.0000 </r>
       <r>    0.5614    1.0000 </r>
       <r>    1.2921    1.0000 </r>
       <r>    1.3149    1.0000 </r>
       <r>    1.3810    1.0000 </r>
       <r>    1.4004    1.0000 </r>
       <r>    1.5290    1.0000 </r>
       <r>    1.7919    1.0000 </r>
       <r>    2.4672    1.0000 </r>
       <r>    2.5330    1.0000 </r>
       <r>    2.6603    1.0000 </r>
       <r>    3.3215    1.0000 </r>
       <r>    3.3744    1.0000 </r>
       <r>    3.4543    1.0000 </r>
       <r>    3.5293    1.0000 </r>
       <r>    3.5996    1.0000 </r>
       <r>    3.7113    1.0000 </r>
       <r>    3.8801    1.0000 </r>
       <r>    3.9874    1.0000 </r>
       <r>    4.1107    1.0000 </r>
       <r>    4.1709    1.0000 </r>
       <r>    4.2200    1.0000 </r>
       <r>    4.5924    1.0000 </r>
       <r>    4.6308    1.0000 </r>
       <r>    4.6693    1.0000 </r>
       <r>    4.7601    1.0000 </r>
       <r>    4.8050    1.0000 </r>
       <r>    4.9176    1.0000 </r>
       <r>    4.9604    1.0000 </r>
       <r>    5.0075    1.0000 </r>
       <r>    5.3016    1.0000 </r>
       <r>    5.7032    1.0000 </r>
       <r>    5.9331    1.0000 </r>
       <r>    6.1781    1.0000 </r>
       <r>    6.7126    1.0000 </r>
       <r>    6.7726    1.0000 </r>
       <r>    6.8056    1.0000 </r>
       <r>    6.9390    1.0000 </r>
       <r>    6.9821    1.0000 </r>
       <r>    7.0166    1.0000 </r>
       <r>    7.0443    1.0000 </r>
       <r>    7.7820    0.3764 </r>
       <r>    7.8656    0.0959 </r>
       <r>    7.9381   -0.0160 </r>
       <r>    8.0303   -0.0321 </r>
       <r>    8.0459   -0.0291 </r>
       <r>    8.0794   -0.0215 </r>
       <r>    8.1471   -0.0087 </r>
       <r>    8.1823   -0.0048 </r>
       <r>    8.2534   -0.0011 </r>
       <r>    9.0835    0.0000 </r>
       <r>    9.1343    0.0000 </r>
       <r>    9.2168    0.0000 </r>
       <r>    9.3584    0.0000 </r>
       <r>    9.3820    0.0000 </r>
       <r>    9.4379    0.0000 </r>
       <r>    9.8596    0.0000 </r>
       <r>    9.9106    0.0000 </r>
       <r>    9.9800    0.0000 </r>
       <r>   10.0247    0.0000 </r>
       <r>   10.0557    0.0000 </r>
       <r>   10.1498    0.0000 </r>
       <r>   10.5166    0.0000 </r>
      </set>
      <set comment="kpoint 2">
       <r>   -3.0378    1.0000 </r>
       <r>   -1.9759    1.0000 </r>
       <r>   -1.9540    1.0000 </r>
       <r>   -1.7814    1.0000 </r>
       <r>   -0.8651    1.0000 </r>
       <r>   -0.8319    1.0000 </r>
       <r>   -0.5533    1.0000 </r>
       <r>    0.2355    1.0000 </r>
       <r>    0.2484    1.0000 </r>
       <r>    0.3421    1.0000 </r>
       <r>    0.4821    1.0000 </r>
       <r>    1.2844    1.0000 </r>
       <r>    1.3081    1.0000 </r>
       <r>    1.3281    1.0000 </r>
       <r>    1.4366    1.0000 </r>
       <r>    1.5492    1.0000 </r>
       <r>    1.8265    1.0000 </r>
       <r>    2.5034    1.0000 </r>
       <r>    2.5114    1.0000 </r>
       <r>    2.6351    1.0000 </r>
       <r>    3.3543    1.0000 </r>
       <r>    3.3778    1.0000 </r>
       <r>    3.4773    1.0000 </r>
       <r>    3.5362    1.0000 </r>
       <r>    3.5866    1.0000 </r>
       <r>    3.7759    1.0000 </r>
       <r>    3.8866    1.0000 </r>
       <r>    3.9726    1.0000 </r>
       <r>    4.1160    1.0000 </r>
       <r>    4.1189    1.0000 </r>
       <r>    4.2883    1.0000 </r>
       <r>    4.5509    1.0000 </r>
       <r>    4.6215    1.0000 </r>
       <r>    4.6305    1.0000 </r>
       <r>    4.7644    1.0000 </r>
       <r>    4.7887    1.0000 </r>
       <r>    4.8770    1.0000 </r>
       <r>    4.9996    1.0000 </r>
       <r>    5.0964    1.0000 </r>
       <r>    5.2039    1.0000 </r>
       <r>    5.7000    1.0000 </r>
       <r>    5.8009    1.0000 </r>
       <r>    6.2914    1.0000 </r>
       <r>    6.7121    1.0000 </r>
       <r>    6.7413    1.0000 </r>
       <r>    6.7499    1.0000 </r>
       <r>    6.9025    1.0000 </r>
       <r>    6.9859    1.0000 </r>
       <r>    7.0186    1.0000 </r>
       <r>    7.0628    1.0000 </r>
       <r>    7.7822    0.3755 </r>
       <r>    7.8254    0.2127 </r>
       <r>    7.8620    0.1047 </r>
       <r>    8.0769   -0.0220 </r>
       <r>    8.0892   -0.0192 </r>
       <r>    8.1664   -0.0063 </r>
       <r>    8.2097   -0.0028 </r>
       <r>    8.2455   -0.0014 </r>
       <r>    8.3712   -0.0001 </r>
       <r>    9.0255    0.0000 </r>
       <r>    9.0670    0.0000 </r>
       <r>    9.1435    0.0000 </r>
       <r>    9.3076    0.0000 </r>
       <r>    9.4052    0.0000 </r>
       <r>    9.4293    0.0000 </r>
       <r>    9.9511    0.0000 </r>
       <r>    9.9546    0.0000 </r>
       <r>    9.9649    0.0000 </r>
       <r>    9.9796    0.0000 </r>
       <r>   10.1602    0.0000 </r>
       <r>   10.1823    0.0000 </r>
       <r>   10.5685    0.0000 </r>
      </set>
     </set>
    </set>
   </array>
  </eigenvalues>
  <separator name="orbital magnetization" >
   <v name="MAGDIPOLOUT">      0.00000000      0.00000000      0.00000000</v>
  </separator>
  <dos>
   <i name="efermi">      7.75243239 </i>
   <total>
    <array>
     <dimension dim="1">gridpoints</dimension>
     <dimension dim="2">spin</dimension>
     <field>energy</field>
     <field>total</field>
     <field>integrated</field>
     <set>
      <set comment="spin 1">
       <r>  -5.0394   0.0000   0.0000 </r>
       <r>  -4.9807   0.0000   0.0000 </r>
       <r>  -4.9220   0.0000   0.0000 </r>
       <r>  -4.8633   0.0000   0.0000 </r>
       <r>  -4.8046   0.0000   0.0000 </r>
       <r>  -4.7459   0.0000   0.0000 </r>
       <r>  -4.6872   0.0000   0.0000 </r>
       <r>  -4.6286   0.0000   0.0000 </r>
       <r>  -4.5699   0.0000   0.0000 </r>
       <r>  -4.5112   0.0000   0.0000 </r>
       <r>  -4.4525   0.0000   0.0000 </r>
       <r>  -4.3938   0.0000   0.0000 </r>
       <r>  -4.3351   0.0000   0.0000 </r>
       <r>  -4.2764   0.0000   0.0000 </r>
       <r>  -4.2177   0.0000   0.0000 </r>
       <r>  -4.1590   0.0000   0.0000 </r>
       <r>  -4.1003   0.0000   0.0000 </r>
       <r>  -4.0416   0.0000   0.0000 </r>
       <r>  -3.9829   0.0000   0.0000 </r>
       <r>  -3.9242   0.0000   0.0000 </r>
       <r>  -3.8655   0.0000   0.0000 </r>
       <r>  -3.8069   0.0000   0.0000 </r>
       <r>  -3.7482  -0.0001   0.0000 </r>
       <r>  -3.6895  -0.0006   0.0000 </r>
       <r>  -3.6308  -0.0032  -0.0002 </r>
       <r>  -3.5721  -0.0141  -0.0011 </r>
       <r>  -3.5134  -0.0500  -0.0040 </r>
       <r>  -3.4547  -0.1403  -0.0122 </r>
       <r>  -3.3960  -0.3007  -0.0299 </r>
       <r>  -3.3373  -0.4430  -0.0559 </r>
       <r>  -3.2786  -0.2527  -0.0707 </r>
       <r>  -3.2199   0.7785  -0.0250 </r>
       <r>  -3.1612   2.9549   0.1484 </r>
       <r>  -3.1025   5.7935   0.4884 </r>
       <r>  -3.0438   7.9616   0.9557 </r>
       <r>  -2.9852   8.1654   1.4350 </r>
       <r>  -2.9265   6.2744   1.8032 </r>
       <r>  -2.8678   3.4424   2.0053 </r>
       <r>  -2.8091   1.0835   2.0689 </r>
       <r>  -2.7504  -0.1454   2.0603 </r>
       <r>  -2.6917  -0.4468   2.0341 </r>
       <r>  -2.6330  -0.3337   2.0145 </r>
       <r>  -2.5743  -0.1680   2.0047 </r>
       <r>  -2.5156  -0.0787   2.0001 </r>
       <r>  -2.4569  -0.0840   1.9951 </r>
       <r>  -2.3982  -0.2038   1.9832 </r>
       <r>  -2.3395  -0.4733   1.9554 </r>
       <r>  -2.2808  -0.8232   1.9071 </r>
       <r>  -2.2221  -0.8480   1.8573 </r>
       <r>  -2.1635   0.3096   1.8755 </r>
       <r>  -2.1048   3.5529   2.0840 </r>
       <r>  -2.0461   8.8831   2.6054 </r>
       <r>  -1.9874  14.7699   3.4723 </r>
       <r>  -1.9287  18.8380   4.5779 </r>
       <r>  -1.8700  19.4880   5.7217 </r>
       <r>  -1.8113  16.8486   6.7106 </r>
       <r>  -1.7526  12.2909   7.4320 </r>
       <r>  -1.6939   7.3944   7.8660 </r>
       <r>  -1.6352   3.3445   8.0623 </r>
       <r>  -1.5765   0.7465   8.1061 </r>
       <r>  -1.5178  -0.4182   8.0816 </r>
       <r>  -1.4591  -0.6274   8.0447 </r>
       <r>  -1.4004  -0.4537   8.0181 </r>
       <r>  -1.3418  -0.2825   8.0015 </r>
       <r>  -1.2831  -0.2812   7.9850 </r>
       <r>  -1.2244  -0.4865   7.9565 </r>
       <r>  -1.1657  -0.7845   7.9104 </r>
       <r>  -1.1070  -0.7316   7.8675 </r>
       <r>  -1.0483   0.5241   7.8982 </r>
       <r>  -0.9896   3.7811   8.1202 </r>
       <r>  -0.9309   8.7989   8.6366 </r>
       <r>  -0.8722  13.7747   9.4451 </r>
       <r>  -0.8135  16.3749  10.4062 </r>
       <r>  -0.7548  15.7105  11.3283 </r>
       <r>  -0.6961  13.0684  12.0953 </r>
       <r>  -0.6374  10.4238  12.7071 </r>
       <r>  -0.5787   8.5392  13.2083 </r>
       <r>  -0.5200   6.8318  13.6093 </r>
       <r>  -0.4614   4.7076  13.8856 </r>
       <r>  -0.4027   2.4209  14.0277 </r>
       <r>  -0.3440   0.6576  14.0663 </r>
       <r>  -0.2853  -0.2481  14.0517 </r>
       <r>  -0.2266  -0.5193  14.0212 </r>
       <r>  -0.1679  -0.6136  13.9852 </r>
       <r>  -0.1092  -0.8550  13.9350 </r>
       <r>  -0.0505  -1.1774  13.8659 </r>
       <r>   0.0082  -0.9106  13.8125 </r>
       <r>   0.0669   1.1794  13.8817 </r>
       <r>   0.1256   6.1196  14.2409 </r>
       <r>   0.1843  13.3874  15.0266 </r>
       <r>   0.2430  20.3547  16.2213 </r>
       <r>   0.3017  23.7842  17.6173 </r>
       <r>   0.3603  22.4100  18.9326 </r>
       <r>   0.4190  17.8854  19.9823 </r>
       <r>   0.4777  13.0049  20.7456 </r>
       <r>   0.5364   9.3080  21.2919 </r>
       <r>   0.5951   6.5905  21.6787 </r>
       <r>   0.6538   4.1822  21.9242 </r>
       <r>   0.7125   2.0064  22.0420 </r>
       <r>   0.7712   0.4246  22.0669 </r>
       <r>   0.8299  -0.4150  22.0425 </r>
       <r>   0.8886  -0.7989  21.9956 </r>
       <r>   0.9473  -1.1431  21.9285 </r>
       <r>   1.0060  -1.5081  21.8400 </r>
       <r>   1.0647  -1.1985  21.7697 </r>
       <r>   1.1234   1.2219  21.8414 </r>
       <r>   1.1820   7.0497  22.2552 </r>
       <r>   1.2407  15.9111  23.1890 </r>
       <r>   1.2994  25.0305  24.6582 </r>
       <r>   1.3581  30.6336  26.4561 </r>
       <r>   1.4168  30.5837  28.2512 </r>
       <r>   1.4755  25.6895  29.7590 </r>
       <r>   1.5342  18.6314  30.8525 </r>
       <r>   1.5929  12.0998  31.5627 </r>
       <r>   1.6516   7.8269  32.0221 </r>
       <r>   1.7103   6.3429  32.3943 </r>
       <r>   1.7690   6.8303  32.7952 </r>
       <r>   1.8277   7.4993  33.2354 </r>
       <r>   1.8864   6.8348  33.6366 </r>
       <r>   1.9451   4.7059  33.9128 </r>
       <r>   2.0037   2.1563  34.0393 </r>
       <r>   2.0624   0.2297  34.0528 </r>
       <r>   2.1211  -0.8126  34.0051 </r>
       <r>   2.1798  -1.2466  33.9319 </r>
       <r>   2.2385  -1.1272  33.8658 </r>
       <r>   2.2972   0.1472  33.8744 </r>
       <r>   2.3559   3.4610  34.0776 </r>
       <r>   2.4146   8.9391  34.6022 </r>
       <r>   2.4733  15.1578  35.4919 </r>
       <r>   2.5320  19.6337  36.6442 </r>
       <r>   2.5907  20.4281  37.8432 </r>
       <r>   2.6494  17.4090  38.8650 </r>
       <r>   2.7081  12.1103  39.5758 </r>
       <r>   2.7668   6.6009  39.9632 </r>
       <r>   2.8254   2.4019  40.1042 </r>
       <r>   2.8841   0.0045  40.1045 </r>
       <r>   2.9428  -0.9928  40.0462 </r>
       <r>   3.0015  -1.3325  39.9680 </r>
       <r>   3.0602  -1.4484  39.8830 </r>
       <r>   3.1189  -1.0366  39.8221 </r>
       <r>   3.1776   0.8807  39.8738 </r>
       <r>   3.2363   5.2506  40.1820 </r>
       <r>   3.2950  11.9781  40.8850 </r>
       <r>   3.3537  19.5209  42.0308 </r>
       <r>   3.4124  25.6583  43.5367 </r>
       <r>   3.4711  28.7534  45.2243 </r>
       <r>   3.5298  28.3815  46.8901 </r>
       <r>   3.5885  25.1953  48.3689 </r>
       <r>   3.6471  20.6182  49.5791 </r>
       <r>   3.7058  16.4468  50.5444 </r>
       <r>   3.7645  14.1130  51.3727 </r>
       <r>   3.8232  13.9797  52.1932 </r>
       <r>   3.8819  15.3816  53.0960 </r>
       <r>   3.9406  17.4142  54.1181 </r>
       <r>   3.9993  19.6133  55.2693 </r>
       <r>   4.0580  21.7731  56.5472 </r>
       <r>   4.1167  23.2251  57.9103 </r>
       <r>   4.1754  22.7148  59.2435 </r>
       <r>   4.2341  19.3434  60.3788 </r>
       <r>   4.2928  13.6664  61.1810 </r>
       <r>   4.3515   7.8381  61.6410 </r>
       <r>   4.4102   4.6711  61.9152 </r>
       <r>   4.4688   6.1684  62.2772 </r>
       <r>   4.5275  12.2278  62.9949 </r>
       <r>   4.5862  20.4136  64.1930 </r>
       <r>   4.6449  27.3573  65.7987 </r>
       <r>   4.7036  30.8987  67.6122 </r>
       <r>   4.7623  31.1117  69.4383 </r>
       <r>   4.8210  29.4918  71.1692 </r>
       <r>   4.8797  27.4159  72.7784 </r>
       <r>   4.9384  25.2747  74.2618 </r>
       <r>   4.9971  22.6860  75.5933 </r>
       <r>   5.0558  19.3401  76.7284 </r>
       <r>   5.1145  15.6162  77.6450 </r>
       <r>   5.1732  12.3112  78.3676 </r>
       <r>   5.2319   9.8071  78.9432 </r>
       <r>   5.2905   7.7188  79.3962 </r>
       <r>   5.3492   5.4521  79.7162 </r>
       <r>   5.4079   2.9955  79.8920 </r>
       <r>   5.4666   1.1153  79.9575 </r>
       <r>   5.5253   0.8461  80.0072 </r>
       <r>   5.5840   2.7145  80.1665 </r>
       <r>   5.6427   6.1850  80.5295 </r>
       <r>   5.7014   9.7527  81.1019 </r>
       <r>   5.7601  11.8085  81.7950 </r>
       <r>   5.8188  11.6630  82.4795 </r>
       <r>   5.8775   9.8043  83.0550 </r>
       <r>   5.9362   7.2991  83.4834 </r>
       <r>   5.9949   5.1449  83.7853 </r>
       <r>   6.0536   4.0500  84.0230 </r>
       <r>   6.1122   4.3035  84.2756 </r>
       <r>   6.1709   5.5206  84.5996 </r>
       <r>   6.2296   6.6693  84.9911 </r>
       <r>   6.2883   6.6621  85.3821 </r>
       <r>   6.3470   5.0949  85.6811 </r>
       <r>   6.4057   2.5398  85.8302 </r>
       <r>   6.4644   0.3285  85.8495 </r>
       <r>   6.5231   0.1110  85.8560 </r>
       <r>   6.5818   3.2068  86.0442 </r>
       <r>   6.6405   9.6363  86.6098 </r>
       <r>   6.6992  17.5126  87.6377 </r>
       <r>   6.7579  24.0328  89.0482 </r>
       <r>   6.8166  27.7668  90.6779 </r>
       <r>   6.8753  29.6746  92.4196 </r>
       <r>   6.9339  31.2157  94.2518 </r>
       <r>   6.9926  31.8115  96.1189 </r>
       <r>   7.0513  29.1817  97.8316 </r>
       <r>   7.1100  22.2902  99.1399 </r>
       <r>   7.1687  13.0994  99.9087 </r>
       <r>   7.2274   5.0373 100.2044 </r>
       <r>   7.2861   0.2373 100.2183 </r>
       <r>   7.3448  -1.4949 100.1306 </r>
       <r>   7.4035  -1.6369 100.0345 </r>
       <r>   7.4622  -1.4749  99.9480 </r>
       <r>   7.5209  -1.3614  99.8681 </r>
       <r>   7.5796  -0.6870  99.8277 </r>
       <r>   7.6383   1.6676  99.9256 </r>
       <r>   7.6970   6.3950 100.3009 </r>
       <r>   7.7557  12.7804 101.0511 </r>
       <r>   7.8143  18.8053 102.1548 </r>
       <r>   7.8730  22.7946 103.4927 </r>
       <r>   7.9317  25.0811 104.9648 </r>
       <r>   7.9904  27.5699 106.5829 </r>
       <r>   8.0491  31.3945 108.4256 </r>
       <r>   8.1078  35.3070 110.4978 </r>
       <r>   8.1665  36.6109 112.6466 </r>
       <r>   8.2252  33.5112 114.6135 </r>
       <r>   8.2839  26.5100 116.1694 </r>
       <r>   8.3426  17.8695 117.2183 </r>
       <r>   8.4013  10.0268 117.8068 </r>
       <r>   8.4600   4.3767 118.0636 </r>
       <r>   8.5187   1.0829 118.1272 </r>
       <r>   8.5774  -0.4293 118.1020 </r>
       <r>   8.6360  -0.9378 118.0470 </r>
       <r>   8.6947  -1.0956 117.9827 </r>
       <r>   8.7534  -1.2041 117.9120 </r>
       <r>   8.8121  -1.0057 117.8530 </r>
       <r>   8.8708   0.3331 117.8725 </r>
       <r>   8.9295   3.7386 118.0919 </r>
       <r>   8.9882   9.2680 118.6359 </r>
       <r>   9.0469  15.4691 119.5438 </r>
       <r>   9.1056  20.0904 120.7230 </r>
       <r>   9.1643  21.9351 122.0104 </r>
       <r>   9.2230  22.0030 123.3019 </r>
       <r>   9.2817  22.3464 124.6134 </r>
       <r>   9.3404  23.5989 125.9985 </r>
       <r>   9.3991  23.9932 127.4068 </r>
       <r>   9.4577  21.1751 128.6496 </r>
       <r>   9.5164  14.8122 129.5189 </r>
       <r>   9.5751   7.1132 129.9364 </r>
       <r>   9.6338   1.0647 129.9989 </r>
       <r>   9.6925  -1.2879 129.9233 </r>
       <r>   9.7512   0.9397 129.9785 </r>
       <r>   9.8099   7.7681 130.4344 </r>
       <r>   9.8686  17.8983 131.4849 </r>
       <r>   9.9273  28.2095 133.1406 </r>
       <r>   9.9860  34.8379 135.1854 </r>
       <r>  10.0447  35.5384 137.2712 </r>
       <r>  10.1034  30.9455 139.0875 </r>
       <r>  10.1621  23.4646 140.4647 </r>
       <r>  10.2208  15.4187 141.3697 </r>
       <r>  10.2794   8.4495 141.8656 </r>
       <r>  10.3381   3.8554 142.0919 </r>
       <r>  10.3968   2.4457 142.2354 </r>
       <r>  10.4555   3.8218 142.4597 </r>
       <r>  10.5142   6.2301 142.8254 </r>
       <r>  10.5729   7.5708 143.2698 </r>
       <r>  10.6316   6.8030 143.6690 </r>
       <r>  10.6903   4.4751 143.9317 </r>
       <r>  10.7490   1.9662 144.0471 </r>
       <r>  10.8077   0.3047 144.0650 </r>
       <r>  10.8664  -0.3475 144.0446 </r>
       <r>  10.9251  -0.3841 144.0220 </r>
       <r>  10.9838  -0.2303 144.0085 </r>
       <r>  11.0425  -0.0999 144.0027 </r>
       <r>  11.1011  -0.0338 144.0007 </r>
       <r>  11.1598  -0.0092 144.0001 </r>
       <r>  11.2185  -0.0020 144.0000 </r>
       <r>  11.2772  -0.0004 144.0000 </r>
       <r>  11.3359  -0.0001 144.0000 </r>
       <r>  11.3946   0.0000 144.0000 </r>
       <r>  11.4533   0.0000 144.0000 </r>
       <r>  11.5120   0.0000 144.0000 </r>
       <r>  11.5707   0.0000 144.0000 </r>
       <r>  11.6294   0.0000 144.0000 </r>
       <r>  11.6881   0.0000 144.0000 </r>
       <r>  11.7468   0.0000 144.0000 </r>
       <r>  11.8055   0.0000 144.0000 </r>
       <r>  11.8642   0.0000 144.0000 </r>
       <r>  11.9228   0.0000 144.0000 </r>
       <r>  11.9815   0.0000 144.0000 </r>
       <r>  12.0402   0.0000 144.0000 </r>
       <r>  12.0989   0.0000 144.0000 </r>
       <r>  12.1576   0.0000 144.0000 </r>
       <r>  12.2163   0.0000 144.0000 </r>
       <r>  12.2750   0.0000 144.0000 </r>
       <r>  12.3337   0.0000 144.0000 </r>
       <r>  12.3924   0.0000 144.0000 </r>
       <r>  12.4511   0.0000 144.0000 </r>
       <r>  12.5098   0.0000 144.0000 </r>
       <r>  12.5685   0.0000 144.0000 </r>
      </set>
     </set>
    </array>
   </total>
  </dos>
 </calculation>
 <structure name="finalpos" >
  <crystal>
   <varray name="basis" >
    <v>       8.08704000       0.00000000       0.00000000 </v>
    <v>       0.00000000       8.08704000       0.00000000 </v>
    <v>       0.00000000       0.00000000       8.08704000 </v>
   </varray>
   <i name="volume">    528.89416249 </i>
   <varray name="rec_basis" >
    <v>       0.12365464       0.00000000       0.00000000 </v>
    <v>       0.00000000       0.12365464       0.00000000 </v>
    <v>       0.00000000       0.00000000       0.12365464 </v>
   </varray>
  </crystal>
  <varray name="positions" >
   <v>       0.99946074       0.99789387       0.99824719 </v>
   <v>       0.25439011       0.01029237       0.25436168 </v>
   <v>       0.25288006       0.25000000       0.00389046 </v>
   <v>       0.00522437       0.25000000       0.25321140 </v>
   <v>       0.49952433       0.00430451       0.00333504 </v>
   <v>       0.74666496       0.00430451       0.25047567 </v>
   <v>       0.74745422       0.25000000       0.00254578 </v>
   <v>       0.99946074       0.50210613       0.99824719 </v>
   <v>       0.25439011       0.48970763       0.25436168 </v>
   <v>       0.24815124       0.75000000       0.99718870 </v>
   <v>       0.99977607       0.75000000       0.25114128 </v>
   <v>       0.49952433       0.49569549       0.00333504 </v>
   <v>       0.74666496       0.49569549       0.25047567 </v>
   <v>       0.75181507       0.75000000      -0.00181507 </v>
   <v>       0.50000256       0.75000000       0.24999744 </v>
   <v>       0.00410185       0.00353236       0.50078912 </v>
   <v>       0.24921088       0.00353236       0.74589815 </v>
   <v>       0.00073725       0.25000000       0.74926275 </v>
   <v>       0.49563832       0.01029237       0.49560989 </v>
   <v>       0.75175281       0.99789387       0.75053926 </v>
   <v>       0.74610954       0.25000000       0.49711994 </v>
   <v>       0.49678860       0.25000000       0.74477563 </v>
   <v>       0.00410185       0.49646764       0.50078912 </v>
   <v>       0.24921088       0.49646764       0.74589815 </v>
   <v>       0.24873218       0.75000000       0.50126782 </v>
   <v>      -0.00108815       0.75000000       0.75108815 </v>
   <v>       0.49563832       0.48970763       0.49560989 </v>
   <v>       0.75175281       0.50210613       0.75053926 </v>
   <v>       0.75281130       0.75000000       0.50184876 </v>
   <v>       0.49885872       0.75000000       0.75022393 </v>
   <v>       0.25026200       0.25000000       0.49973800 </v>
  </varray>
 </structure>
</modeling>
