Processors received = 1
script running on host compute-0-1.local
PBS_NODEFILE
compute-0-1
 running on    1 nodes
 distr:  one band on    1 nodes,    1 groups
 vasp.5.2.2 15Apr09 complex 
 POSCAR found type information on POSCAR  Al
 POSCAR found :  1 types and   31 ions

 ----------------------------------------------------------------------------- 
|                                                                             |
|  ADVICE TO THIS USER RUNNING 'VASP/VAMP'   (HEAR YOUR MASTER'S VOICE ...):  |
|                                                                             |
|      You have a (more or less) 'large supercell' and for larger cells       |
|      it might be more efficient to use real space projection operators      |
|      So try LREAL= Auto  in the INCAR   file.                               |
|      Mind: If you want to do a very accurate calculations keep the          |
|      reciprocal projection scheme          (i.e. LREAL=.FALSE.)             |
|                                                                             |
 ----------------------------------------------------------------------------- 

 LDA part: xc-table for Pade appr. of Perdew
 POSCAR, INCAR and KPOINTS ok, starting setup
 FFT: planning ...(           1 )
 reading WAVECAR
 entering main loop
       N       E                     dE             d eps       ncg     rms          rms(c)
RMM:   1     0.304534359281E+03    0.30453E+03   -0.17099E+04    62   0.648E+02
RMM:   2    -0.127822232120E+02   -0.31732E+03   -0.31234E+03    62   0.138E+02
RMM:   3    -0.864707779055E+02   -0.73689E+02   -0.76058E+02    62   0.469E+01
RMM:   4    -0.104113965930E+03   -0.17643E+02   -0.17619E+02    62   0.270E+01
RMM:   5    -0.110654050303E+03   -0.65401E+01   -0.55686E+01    62   0.144E+01
RMM:   6    -0.113371450123E+03   -0.27174E+01   -0.21731E+01    62   0.838E+00
RMM:   7    -0.114445907766E+03   -0.10745E+01   -0.90128E+00    62   0.502E+00
RMM:   8    -0.114929538681E+03   -0.48363E+00   -0.41144E+00    62   0.316E+00
RMM:   9    -0.115351864802E+03   -0.42233E+00   -0.37879E+00   157   0.203E+00
RMM:  10    -0.115424111401E+03   -0.72247E-01   -0.27857E-01   153   0.484E-01
RMM:  11    -0.115427400957E+03   -0.32896E-02   -0.99337E-03   129   0.104E-01
RMM:  12    -0.115427439734E+03   -0.38778E-04   -0.20489E-04    93   0.268E-02    0.535E+00
RMM:  13    -0.114892322386E+03    0.53512E+00   -0.52404E-01   133   0.117E+00    0.329E+00
RMM:  14    -0.114626590243E+03    0.26573E+00   -0.23553E-01   140   0.106E+00    0.879E-01
RMM:  15    -0.114603742903E+03    0.22847E-01   -0.24045E-02   143   0.368E-01    0.127E-01
RMM:  16    -0.114603080539E+03    0.66236E-03   -0.32996E-03   142   0.120E-01    0.379E-02
RMM:  17    -0.114603107778E+03   -0.27239E-04   -0.27966E-04   103   0.436E-02
   1 F= -.11460311E+03 E0= -.11458635E+03  d E =-.502799E-01
