  31  31   0   0
  0.1706119E+02  0.8087054E-09  0.8087054E-09  0.8087054E-09  0.5000000E-15
  1.000000000000000E-004
  CAR 
 unknown system                          
     12.03889066     -4.93377199  301      7.87785823      1.00000000
     -4.934  0.0000E+00  0.0000E+00
     -4.877  0.0000E+00  0.0000E+00
     -4.821  0.0000E+00  0.0000E+00
     -4.764  0.0000E+00  0.0000E+00
     -4.707  0.0000E+00  0.0000E+00
     -4.651  0.0000E+00  0.0000E+00
     -4.594  0.0000E+00  0.0000E+00
     -4.538 -0.9332E-26 -0.5280E-27
     -4.481 -0.7672E-24 -0.4393E-25
     -4.425 -0.5421E-22 -0.3111E-23
     -4.368 -0.3258E-20 -0.1874E-21
     -4.311 -0.1665E-18 -0.9607E-20
     -4.255 -0.7234E-17 -0.4189E-18
     -4.198 -0.2672E-15 -0.1554E-16
     -4.142 -0.8386E-14 -0.4900E-15
     -4.085 -0.2157E-12 -0.1270E-13
     -4.029 -0.4895E-11 -0.2896E-12
     -3.972 -0.9370E-10 -0.5591E-11
     -3.915 -0.1520E-08 -0.9161E-10
     -3.859 -0.2090E-07 -0.1274E-08
     -3.802 -0.2430E-06 -0.1502E-07
     -3.746 -0.2387E-05 -0.1501E-06
     -3.689 -0.1978E-04 -0.1269E-05
     -3.633 -0.1379E-03 -0.9072E-05
     -3.576 -0.8068E-03 -0.5472E-04
     -3.519 -0.3941E-02 -0.2777E-03
     -3.463 -0.1598E-01 -0.1182E-02
     -3.406 -0.5318E-01 -0.4190E-02
     -3.350 -0.1428E+00 -0.1227E-01
     -3.293 -0.2981E+00 -0.2913E-01
     -3.237 -0.4409E+00 -0.5408E-01
     -3.180 -0.2975E+00 -0.7090E-01
     -3.123  0.5871E+00 -0.3769E-01
     -3.067  0.2537E+01  0.1059E+00
     -3.010  0.5245E+01  0.4026E+00
     -2.954  0.7606E+01  0.8329E+00
     -2.897  0.8345E+01  0.1305E+01
     -2.840  0.7022E+01  0.1702E+01
     -2.784  0.4412E+01  0.1952E+01
     -2.727  0.1846E+01  0.2056E+01
     -2.671  0.2189E+00  0.2069E+01
     -2.614 -0.3956E+00  0.2046E+01
     -2.558 -0.4116E+00  0.2023E+01
     -2.501 -0.2482E+00  0.2009E+01
     -2.444 -0.1168E+00  0.2002E+01
     -2.388 -0.6993E-01  0.1998E+01
     -2.331 -0.1175E+00  0.1992E+01
     -2.275 -0.2910E+00  0.1975E+01
     -2.218 -0.6105E+00  0.1941E+01
     -2.162 -0.9318E+00  0.1888E+01
     -2.105 -0.7338E+00  0.1847E+01
     -2.048  0.8774E+00  0.1896E+01
     -1.992  0.4624E+01  0.2158E+01
     -1.935  0.1015E+02  0.2732E+01
     -1.879  0.1572E+02  0.3622E+01
     -1.822  0.1910E+02  0.4702E+01
     -1.766  0.1916E+02  0.5786E+01
     -1.709  0.1635E+02  0.6712E+01
     -1.652  0.1206E+02  0.7394E+01
     -1.596  0.7576E+01  0.7823E+01
     -1.539  0.3766E+01  0.8036E+01
     -1.483  0.1136E+01  0.8100E+01
     -1.426 -0.2191E+00  0.8088E+01
     -1.370 -0.6039E+00  0.8053E+01
     -1.313 -0.5060E+00  0.8025E+01
     -1.256 -0.3231E+00  0.8006E+01
     -1.200 -0.2643E+00  0.7992E+01
     -1.143 -0.4054E+00  0.7969E+01
     -1.087 -0.7119E+00  0.7928E+01
     -1.030 -0.9112E+00  0.7877E+01
     -0.973 -0.3278E+00  0.7858E+01
     -0.917  0.1944E+01  0.7968E+01
     -0.860  0.6270E+01  0.8323E+01
     -0.804  0.1161E+02  0.8980E+01
     -0.747  0.1574E+02  0.9870E+01
     -0.691  0.1682E+02  0.1082E+02
     -0.634  0.1507E+02  0.1167E+02
     -0.577  0.1229E+02  0.1237E+02
     -0.521  0.1002E+02  0.1294E+02
     -0.464  0.8263E+01  0.1340E+02
     -0.408  0.6274E+01  0.1376E+02
     -0.351  0.3848E+01  0.1398E+02
     -0.295  0.1582E+01  0.1407E+02
     -0.238  0.1174E+00  0.1407E+02
     -0.181 -0.4598E+00  0.1405E+02
     -0.125 -0.5262E+00  0.1402E+02
     -0.068 -0.5294E+00  0.1399E+02
     -0.012 -0.7376E+00  0.1395E+02
      0.045 -0.1121E+01  0.1388E+02
      0.101 -0.1188E+01  0.1382E+02
      0.158  0.1146E+00  0.1382E+02
      0.215  0.3963E+01  0.1405E+02
      0.271  0.1054E+02  0.1464E+02
      0.328  0.1809E+02  0.1567E+02
      0.384  0.2351E+02  0.1700E+02
      0.441  0.2455E+02  0.1838E+02
      0.497  0.2151E+02  0.1960E+02
      0.554  0.1663E+02  0.2054E+02
      0.611  0.1193E+02  0.2122E+02
      0.667  0.8055E+01  0.2167E+02
      0.724  0.4811E+01  0.2195E+02
      0.780  0.2170E+01  0.2207E+02
      0.837  0.3897E+00  0.2209E+02
      0.894 -0.4501E+00  0.2206E+02
      0.950 -0.6610E+00  0.2203E+02
      1.007 -0.7264E+00  0.2199E+02
      1.063 -0.1002E+01  0.2193E+02
      1.120 -0.1485E+01  0.2185E+02
      1.176 -0.1568E+01  0.2176E+02
      1.233  0.7109E-01  0.2176E+02
      1.290  0.4966E+01  0.2204E+02
      1.346  0.1357E+02  0.2281E+02
      1.403  0.2403E+02  0.2417E+02
      1.459  0.3256E+02  0.2601E+02
      1.516  0.3548E+02  0.2802E+02
      1.572  0.3156E+02  0.2980E+02
      1.629  0.2282E+02  0.3109E+02
      1.686  0.1321E+02  0.3184E+02
      1.742  0.6443E+01  0.3221E+02
      1.799  0.4087E+01  0.3244E+02
      1.855  0.5082E+01  0.3273E+02
      1.912  0.6850E+01  0.3311E+02
      1.968  0.7197E+01  0.3352E+02
      2.025  0.5616E+01  0.3384E+02
      2.082  0.3095E+01  0.3401E+02
      2.138  0.9134E+00  0.3406E+02
      2.195 -0.3590E+00  0.3404E+02
      2.251 -0.9353E+00  0.3399E+02
      2.308 -0.1230E+01  0.3392E+02
      2.364 -0.1233E+01  0.3385E+02
      2.421 -0.2495E+00  0.3384E+02
      2.478  0.2759E+01  0.3399E+02
      2.534  0.8216E+01  0.3446E+02
      2.591  0.1498E+02  0.3531E+02
      2.647  0.2047E+02  0.3646E+02
      2.704  0.2217E+02  0.3772E+02
      2.761  0.1936E+02  0.3881E+02
      2.817  0.1354E+02  0.3958E+02
      2.874  0.7268E+01  0.3999E+02
      2.930  0.2529E+01  0.4013E+02
      2.987 -0.2484E-01  0.4013E+02
      3.043 -0.8578E+00  0.4008E+02
      3.100 -0.8388E+00  0.4004E+02
      3.157 -0.6859E+00  0.4000E+02
      3.213 -0.7910E+00  0.3995E+02
      3.270 -0.1226E+01  0.3988E+02
      3.326 -0.1643E+01  0.3979E+02
      3.383 -0.1045E+01  0.3973E+02
      3.439  0.2138E+01  0.3985E+02
      3.496  0.9194E+01  0.4037E+02
      3.553  0.1965E+02  0.4148E+02
      3.609  0.3039E+02  0.4320E+02
      3.666  0.3680E+02  0.4529E+02
      3.722  0.3573E+02  0.4731E+02
      3.779  0.2804E+02  0.4889E+02
      3.835  0.1812E+02  0.4992E+02
      3.892  0.1065E+02  0.5052E+02
      3.949  0.7355E+01  0.5094E+02
      4.005  0.6677E+01  0.5132E+02
      4.062  0.6091E+01  0.5166E+02
      4.118  0.4400E+01  0.5191E+02
      4.175  0.2042E+01  0.5202E+02
      4.231 -0.8534E-01  0.5202E+02
      4.288 -0.1570E+01  0.5193E+02
      4.345 -0.2296E+01  0.5180E+02
      4.401 -0.1615E+01  0.5171E+02
      4.458  0.1937E+01  0.5182E+02
      4.514  0.9614E+01  0.5236E+02
      4.571  0.2066E+02  0.5353E+02
      4.627  0.3161E+02  0.5532E+02
      4.684  0.3829E+02  0.5749E+02
      4.741  0.3906E+02  0.5970E+02
      4.797  0.3597E+02  0.6173E+02
      4.854  0.3213E+02  0.6355E+02
      4.910  0.2860E+02  0.6517E+02
      4.967  0.2433E+02  0.6654E+02
      5.024  0.1884E+02  0.6761E+02
      5.080  0.1346E+02  0.6837E+02
      5.137  0.9774E+01  0.6892E+02
      5.193  0.7751E+01  0.6936E+02
      5.250  0.6118E+01  0.6971E+02
      5.306  0.3988E+01  0.6993E+02
      5.363  0.1594E+01  0.7002E+02
      5.420 -0.3399E+00  0.7001E+02
      5.476 -0.1268E+01  0.6993E+02
      5.533 -0.7548E+00  0.6989E+02
      5.589  0.1735E+01  0.6999E+02
      5.646  0.6347E+01  0.7035E+02
      5.702  0.1192E+02  0.7102E+02
      5.759  0.1595E+02  0.7193E+02
      5.816  0.1617E+02  0.7284E+02
      5.872  0.1241E+02  0.7354E+02
      5.929  0.6835E+01  0.7393E+02
      5.985  0.2350E+01  0.7406E+02
      6.042  0.7548E+00  0.7410E+02
      6.098  0.2077E+01  0.7422E+02
      6.155  0.4954E+01  0.7450E+02
      6.212  0.7449E+01  0.7492E+02
      6.268  0.8035E+01  0.7538E+02
      6.325  0.6395E+01  0.7574E+02
      6.381  0.3434E+01  0.7593E+02
      6.438  0.4916E+00  0.7596E+02
      6.494 -0.1371E+01  0.7588E+02
      6.551 -0.1330E+01  0.7581E+02
      6.608  0.1456E+01  0.7589E+02
      6.664  0.7365E+01  0.7631E+02
      6.721  0.1534E+02  0.7718E+02
      6.777  0.2302E+02  0.7848E+02
      6.834  0.2852E+02  0.8009E+02
      6.891  0.3197E+02  0.8190E+02
      6.947  0.3438E+02  0.8385E+02
      7.004  0.3525E+02  0.8584E+02
      7.060  0.3244E+02  0.8768E+02
      7.117  0.2493E+02  0.8909E+02
      7.173  0.1479E+02  0.8992E+02
      7.230  0.5746E+01  0.9025E+02
      7.287  0.2776E+00  0.9026E+02
      7.343 -0.1691E+01  0.9017E+02
      7.400 -0.1741E+01  0.9007E+02
      7.456 -0.1394E+01  0.8999E+02
      7.513 -0.1352E+01  0.8991E+02
      7.569 -0.1438E+01  0.8983E+02
      7.626 -0.7227E+00  0.8979E+02
      7.683  0.2096E+01  0.8991E+02
      7.739  0.7688E+01  0.9034E+02
      7.796  0.1495E+02  0.9119E+02
      7.852  0.2119E+02  0.9239E+02
      7.909  0.2437E+02  0.9377E+02
      7.965  0.2535E+02  0.9520E+02
      8.022  0.2727E+02  0.9674E+02
      8.079  0.3197E+02  0.9855E+02
      8.135  0.3758E+02  0.1007E+03
      8.192  0.3990E+02  0.1029E+03
      8.248  0.3629E+02  0.1050E+03
      8.305  0.2769E+02  0.1066E+03
      8.361  0.1742E+02  0.1075E+03
      8.418  0.8622E+01  0.1080E+03
      8.475  0.2791E+01  0.1082E+03
      8.531 -0.1541E+00  0.1082E+03
      8.588 -0.1100E+01  0.1081E+03
      8.644 -0.1067E+01  0.1081E+03
      8.701 -0.8332E+00  0.1080E+03
      8.758 -0.8317E+00  0.1080E+03
      8.814 -0.1141E+01  0.1079E+03
      8.871 -0.1378E+01  0.1078E+03
      8.927 -0.5492E+00  0.1078E+03
      8.984  0.2658E+01  0.1079E+03
      9.040  0.8785E+01  0.1084E+03
      9.097  0.1641E+02  0.1094E+03
      9.154  0.2255E+02  0.1106E+03
      9.210  0.2506E+02  0.1121E+03
      9.267  0.2475E+02  0.1135E+03
      9.323  0.2433E+02  0.1148E+03
      9.380  0.2501E+02  0.1163E+03
      9.436  0.2493E+02  0.1177E+03
      9.493  0.2151E+02  0.1189E+03
      9.550  0.1464E+02  0.1197E+03
      9.606  0.6881E+01  0.1201E+03
      9.663  0.1045E+01  0.1202E+03
      9.719 -0.1750E+01  0.1201E+03
      9.776 -0.1765E+01  0.1200E+03
      9.832  0.5932E+00  0.1200E+03
      9.889  0.5049E+01  0.1203E+03
      9.946  0.1062E+02  0.1209E+03
     10.002  0.1514E+02  0.1217E+03
     10.059  0.1635E+02  0.1227E+03
     10.115  0.1360E+02  0.1234E+03
     10.172  0.8489E+01  0.1239E+03
     10.228  0.3555E+01  0.1241E+03
     10.285  0.4400E+00  0.1241E+03
     10.342 -0.7447E+00  0.1241E+03
     10.398 -0.7871E+00  0.1240E+03
     10.455 -0.4779E+00  0.1240E+03
     10.511 -0.2142E+00  0.1240E+03
     10.568 -0.7592E-01  0.1240E+03
     10.625 -0.2189E-01  0.1240E+03
     10.681 -0.5216E-02  0.1240E+03
     10.738 -0.1036E-02  0.1240E+03
     10.794 -0.1724E-03  0.1240E+03
     10.851 -0.2414E-04  0.1240E+03
     10.907 -0.2852E-05  0.1240E+03
     10.964 -0.2849E-06  0.1240E+03
     11.021 -0.2409E-07  0.1240E+03
     11.077 -0.1726E-08  0.1240E+03
     11.134 -0.1050E-09  0.1240E+03
     11.190 -0.5408E-11  0.1240E+03
     11.247 -0.2433E-12  0.1240E+03
     11.303 -0.7849E-14  0.1240E+03
     11.360  0.0000E+00  0.1240E+03
     11.417  0.0000E+00  0.1240E+03
     11.473  0.0000E+00  0.1240E+03
     11.530  0.0000E+00  0.1240E+03
     11.586  0.0000E+00  0.1240E+03
     11.643  0.0000E+00  0.1240E+03
     11.699  0.0000E+00  0.1240E+03
     11.756  0.0000E+00  0.1240E+03
     11.813  0.0000E+00  0.1240E+03
     11.869  0.0000E+00  0.1240E+03
     11.926  0.0000E+00  0.1240E+03
     11.982  0.0000E+00  0.1240E+03
     12.039  0.0000E+00  0.1240E+03
