   31   31    1    1
  0.1706119E+02  0.8087054E-09  0.8087054E-09  0.8087054E-09  0.5000000E-15
  1.000000000000000E-004
  CAR 
 unknown system                          
   93    1   62
 
  0.2500000E+00  0.2500000E+00  0.2500000E+00  0.1000000E+01
   1       -2.933772
   2       -1.858678
   3       -1.858678
   4       -1.686202
   5       -0.743691
   6       -0.743691
   7       -0.497502
   8        0.359910
   9        0.359910
  10        0.426556
  11        0.605147
  12        1.428161
  13        1.428161
  14        1.456649
  15        1.563293
  16        1.563293
  17        1.907903
  18        2.633928
  19        2.633928
  20        2.751367
  21        3.595016
  22        3.595016
  23        3.696317
  24        3.697545
  25        3.697545
  26        3.989301
  27        4.622245
  28        4.622245
  29        4.653867
  30        4.717150
  31        4.717150
  32        4.910236
  33        4.910236
  34        4.915360
  35        5.173626
  36        5.763142
  37        5.763142
  38        6.222072
  39        6.776760
  40        6.793540
  41        6.793540
  42        6.970586
  43        7.022846
  44        7.031185
  45        7.031185
  46        7.834991
  47        7.881274
  48        7.881274
  49        8.096256
  50        8.096256
  51        8.154052
  52        8.195672
  53        8.195672
  54        8.318868
  55        9.149306
  56        9.149306
  57        9.180751
  58        9.409127
  59        9.409144
  60        9.434965
  61        9.997970
  62       10.038891
