<?xml version="1.0" encoding="ISO-8859-1"?>
<modeling>
 <generator>
  <i name="program" type="string">vasp </i>
  <i name="version" type="string">5.2.2  </i>
  <i name="subversion" type="string">15Apr09 complex  parallel </i>
  <i name="platform" type="string">LinuxIFC </i>
  <i name="date" type="string">2014 04 24 </i>
  <i name="time" type="string">10:12:57 </i>
 </generator>
 <incar>
  <i type="string" name="PREC">accurate</i>
  <i type="int" name="IALGO">    48</i>
  <i type="int" name="IBRION">    -1</i>
  <i name="EDIFFG">      0.05000000</i>
  <i type="int" name="NSW">     0</i>
  <i type="int" name="ISIF">     2</i>
  <i name="ENCUT">    300.00000000</i>
  <i name="NELECT">     93.00000000</i>
  <i type="int" name="ISMEAR">     1</i>
  <i name="SIGMA">      0.20000000</i>
  <i type="logical" name="LWAVE"> F  </i>
  <i type="logical" name="LCHARG"> F  </i>
  <i type="logical" name="LPEAD"> F  </i>
  <i type="logical" name="LCALCPOL"> F  </i>
  <i type="logical" name="LCALCEPS"> F  </i>
  <v name="EFIELD_PEAD">      0.00000000      0.00000000      0.00000000</v>
  <i type="logical" name="LEFG"> F  </i>
 </incar>
 <kpoints>
  <generation param="Monkhorst-Pack">
   <v type="int" name="divisions">       2        2        2 </v>
   <v name="usershift">      0.00000000       0.00000000       0.00000000 </v>
   <v name="genvec1">      0.50000000       0.00000000       0.00000000 </v>
   <v name="genvec2">      0.00000000       0.50000000       0.00000000 </v>
   <v name="genvec3">      0.00000000       0.00000000       0.50000000 </v>
   <v name="shift">      0.50000000       0.50000000       0.50000000 </v>
  </generation>
  <varray name="kpointlist" >
   <v>       0.25000000       0.25000000       0.25000000 </v>
  </varray>
  <varray name="weights" >
   <v>       1.00000000 </v>
  </varray>
 </kpoints>
 <parameters>
  <separator name="general" >
   <i type="string" name="SYSTEM">unknown system</i>
   <i type="logical" name="LCOMPAT"> F  </i>
  </separator>
  <separator name="electronic" >
   <i type="string" name="PREC">accura</i>
   <i name="ENMAX">    300.00000000</i>
   <i name="ENAUG">    291.05200000</i>
   <i name="EDIFF">      0.00010000</i>
   <i type="int" name="IALGO">    48</i>
   <i type="int" name="IWAVPR">    10</i>
   <i type="int" name="NBANDS">    62</i>
   <i name="NELECT">     93.00000000</i>
   <separator name="electronic smearing" >
    <i type="int" name="ISMEAR">     1</i>
    <i name="SIGMA">      0.20000000</i>
   </separator>
   <separator name="electronic projectors" >
    <i type="logical" name="LREAL"> F  </i>
    <v name="ROPT">      0.00000000</v>
    <i type="int" name="LMAXPAW">  -100</i>
    <i type="int" name="LMAXMIX">     2</i>
   </separator>
   <separator name="electronic startup" >
    <i type="int" name="ISTART">     0</i>
    <i type="int" name="ICHARG">     2</i>
    <i type="int" name="INIWAV">     1</i>
   </separator>
   <separator name="electronic spin" >
    <i type="int" name="ISPIN">     1</i>
    <i type="logical" name="LNONCOLLINEAR"> F  </i>
    <v name="MAGMOM">      1.00000000      1.00000000      1.00000000      1.00000000      1.00000000      1.00000000      1.00000000      1.00000000      1.00000000      1.00000000      1.00000000      1.00000000      1.00000000      1.00000000      1.00000000      1.00000000      1.00000000      1.00000000      1.00000000      1.00000000
      1.00000000      1.00000000      1.00000000      1.00000000      1.00000000      1.00000000      1.00000000      1.00000000      1.00000000      1.00000000      1.00000000</v>
    <i name="NUPDOWN">     -1.00000000</i>
    <i type="logical" name="LSORBIT"> F  </i>
    <v name="SAXIS">      0.00000000      0.00000000      1.00000000</v>
    <i type="logical" name="LSPIRAL"> F  </i>
    <v name="QSPIRAL">      0.00000000      0.00000000      0.00000000</v>
    <i type="logical" name="LZEROZ"> F  </i>
   </separator>
   <separator name="electronic exchange-correlation" >
    <i type="logical" name="LASPH"> F  </i>
    <i type="logical" name="LMETAGGA"> F  </i>
   </separator>
   <separator name="electronic convergence" >
    <i type="int" name="NELM">    60</i>
    <i type="int" name="NELMDL">   -12</i>
    <i type="int" name="NELMIN">     2</i>
    <i name="ENINI">    300.00000000</i>
    <separator name="electronic convergence detail" >
     <i type="logical" name="LDIAG"> T  </i>
     <i name="WEIMIN">      0.00000000</i>
     <i name="EBREAK">      0.00000040</i>
     <i name="DEPER">      0.30000000</i>
     <i type="int" name="NRMM">     4</i>
     <i name="TIME">      0.40000000</i>
    </separator>
   </separator>
   <separator name="electronic mixer" >
    <i name="AMIX">      0.40000000</i>
    <i name="BMIX">      1.00000000</i>
    <i name="AMIN">      0.10000000</i>
    <i name="AMIX_MAG">      1.60000000</i>
    <i name="BMIX_MAG">      1.00000000</i>
    <separator name="electronic mixer details" >
     <i type="int" name="IMIX">     4</i>
     <i type="int" name="MAXMIX">   -45</i>
     <i name="WC">    100.00000000</i>
     <i type="int" name="INIMIX">     1</i>
     <i type="int" name="MIXPRE">     1</i>
     <i type="int" name="MREMOVE">     5</i>
    </separator>
   </separator>
   <separator name="electronic dipolcorrection" >
    <i type="logical" name="LDIPOL"> F  </i>
    <i type="logical" name="LMONO"> F  </i>
    <i type="int" name="IDIPOL">     0</i>
    <i name="EPSILON">      1.00000000</i>
    <v name="DIPOL">   -100.00000000   -100.00000000   -100.00000000</v>
    <i name="EFIELD">      0.00000000</i>
   </separator>
  </separator>
  <separator name="grids" >
   <i type="int" name="NGX">    48</i>
   <i type="int" name="NGY">    48</i>
   <i type="int" name="NGZ">    48</i>
   <i type="int" name="NGXF">    96</i>
   <i type="int" name="NGYF">    96</i>
   <i type="int" name="NGZF">    96</i>
   <i type="logical" name="ADDGRID"> F  </i>
  </separator>
  <separator name="ionic" >
   <i type="int" name="NSW">     0</i>
   <i type="int" name="IBRION">    -1</i>
   <i type="int" name="ISIF">     2</i>
   <i name="PSTRESS">      0.00000000</i>
   <i name="EDIFFG">      0.05000000</i>
   <i type="int" name="NFREE">     0</i>
   <i name="POTIM">      0.50000000</i>
   <i name="SMASS">     -3.00000000</i>
  </separator>
  <separator name="ionic md" >
   <i name="TEBEG">      0.00010000</i>
   <i name="TEEND">      0.00010000</i>
   <i type="int" name="NBLOCK">     1</i>
   <i type="int" name="KBLOCK">     1</i>
   <i type="int" name="NPACO">   256</i>
   <i name="APACO">     16.00000000</i>
  </separator>
  <separator name="symmetry" >
   <i type="int" name="ISYM">     2</i>
   <i name="SYMPREC">      0.00001000</i>
  </separator>
  <separator name="dos" >
   <i type="logical" name="LORBIT"> F  </i>
   <v name="RWIGS">     -1.00000000</v>
   <i type="int" name="NEDOS">   301</i>
   <i name="EMIN">     10.00000000</i>
   <i name="EMAX">    -10.00000000</i>
   <i name="EFERMI">      0.00000000</i>
  </separator>
  <separator name="writing" >
   <i type="int" name="NWRITE">     2</i>
   <i type="logical" name="LWAVE"> F  </i>
   <i type="logical" name="LCHARG"> F  </i>
   <i type="logical" name="LPARD"> F  </i>
   <i type="logical" name="LVTOT"> F  </i>
   <i type="logical" name="LELF"> F  </i>
   <i type="logical" name="LOPTICS"> F  </i>
   <v name="STM">      0.00000000      0.00000000      0.00000000      0.00000000      0.00000000</v>
  </separator>
  <separator name="performance" >
   <i type="int" name="NPAR">     1</i>
   <i type="int" name="NSIM">     4</i>
   <i type="int" name="NBLK">    32</i>
   <i type="logical" name="LPLANE"> T  </i>
   <i type="logical" name="LSCALAPACK"> F  </i>
   <i type="logical" name="LSCAAWARE"> F  </i>
   <i type="logical" name="LSCALU"> F  </i>
   <i type="logical" name="LASYNC"> F  </i>
  </separator>
  <separator name="miscellaneous" >
   <i type="int" name="IDIOT">     3</i>
   <i type="logical" name="LMUSIC"> F  </i>
   <v name="POMASS">     26.98200000</v>
   <i type="logical" name="LCORR"> T  </i>
  </separator>
  <i type="logical" name="LREAL_COMPAT"> F  </i>
  <i type="logical" name="GGA_COMPAT"> T  </i>
  <i type="logical" name="LBERRY"> F  </i>
  <i type="int" name="ICORELEVEL">     0</i>
  <i type="logical" name="LDAU"> F  </i>
  <i type="int" name="I_CONSTRAINED_M">     0</i>
  <separator name="electronic exchange-correlation" >
   <i type="string" name="GGA">--</i>
   <i type="int" name="VOSKOWN">     0</i>
   <i type="logical" name="LHFCALC"> F  </i>
   <i type="logical" name="LHFONE"> F  </i>
   <i type="logical" name="LRHFCALC"> F  </i>
   <i type="logical" name="LTHOMAS"> F  </i>
   <i type="logical" name="LMODELHF"> F  </i>
   <i name="ENCUTFOCK">      0.00000000</i>
   <i name="ENCUT4O">     -1.00000000</i>
   <i type="int" name="EXXOEP">     0</i>
   <i type="int" name="FOURORBIT">     0</i>
   <i name="AEXX">      0.00000000</i>
   <i name="HFALPHA">      0.00000000</i>
   <i name="ALDAX">      1.00000000</i>
   <i name="AGGAX">      1.00000000</i>
   <i name="ALDAC">      1.00000000</i>
   <i name="AGGAC">      1.00000000</i>
   <i type="int" name="NKREDX">     1</i>
   <i type="int" name="NKREDY">     1</i>
   <i type="int" name="NKREDZ">     1</i>
   <i type="logical" name="SHIFTRED"> F  </i>
   <i type="logical" name="ODDONLY"> F  </i>
   <i type="logical" name="EVENONLY"> F  </i>
   <i type="int" name="LMAXFOCK">     0</i>
   <i type="int" name="NMAXFOCKAE">     0</i>
   <i name="HFSCREEN">      0.00000000</i>
   <i name="HFSCREENC">      0.00000000</i>
  </separator>
  <separator name="model GW" >
   <i type="int" name="MODEL_GW">     0</i>
   <i name="MODEL_EPS0">     10.23671437</i>
   <i name="MODEL_ALPHA">      1.00000000</i>
  </separator>
  <separator name="linear response parameters" >
   <i type="logical" name="LEPSILON"> F  </i>
   <i type="logical" name="LRPA"> F  </i>
   <i type="logical" name="LNABLA"> F  </i>
   <i type="logical" name="LVEL"> F  </i>
   <i type="int" name="KINTER">     0</i>
   <i name="CSHIFT">      0.10000000</i>
   <i name="OMEGAMAX">     -1.00000000</i>
  </separator>
  <separator name="orbital magnetization" >
   <i type="logical" name="ORBITALMAG"> F  </i>
   <i type="logical" name="LMAGBLOCH"> F  </i>
   <i type="logical" name="LCHIMAG"> F  </i>
   <i type="logical" name="LGAUGE"> T  </i>
   <i type="int" name="MAGATOM">     0</i>
   <v name="MAGDIPOL">      0.00000000      0.00000000      0.00000000</v>
   <v name="AVECCONST">      0.00000000      0.00000000      0.00000000</v>
  </separator>
  <separator name="response functions" >
   <i type="logical" name="LRPA"> T  </i>
   <i type="logical" name="LTCTE"> F  </i>
   <i type="logical" name="LTETE"> F  </i>
   <i type="logical" name="L2ORDER"> F  </i>
   <i type="logical" name="LGWLF"> F  </i>
   <i name="ENCUTGW">    200.00000000</i>
   <i name="ENCUTGWSOFT">     -2.00000000</i>
   <i name="ENCUTLF">     -1.00000000</i>
   <i type="int" name="LMAXMP2">    -1</i>
   <i name="SCISSOR">      0.00000000</i>
   <i type="int" name="NOMEGA">     0</i>
   <i type="int" name="NOMEGAR">     0</i>
   <i type="int" name="NBANDSGW">    -1</i>
   <i type="int" name="NBANDSLF">    -1</i>
   <i type="int" name="NELM">     1</i>
   <i type="int" name="DIM">     3</i>
   <i type="int" name="ANTIRES">     0</i>
   <i type="logical" name="LUSEW"> F  </i>
   <i name="OMEGAMAX">    -30.00000000</i>
   <i name="OMEGATL">   -200.00000000</i>
   <i type="int" name="OMEGAGRID">     0</i>
   <i name="CSHIFT">     -0.10000000</i>
   <i type="logical" name="SELFENERGY"> F  </i>
   <i type="logical" name="LSPECTRAL"> F  </i>
   <i type="logical" name="ODDONLYGW"> F  </i>
   <i type="logical" name="EVENONLYGW"> F  </i>
   <i type="int" name="NKREDLFX">     1</i>
   <i type="int" name="NKREDLFY">     1</i>
   <i type="int" name="NKREDLFZ">     1</i>
   <i type="int" name="MAXMEM">  1024</i>
   <i type="int" name="TELESCOPE">     0</i>
  </separator>
 </parameters>
 <atominfo>
  <atoms>      31 </atoms>
  <types>       1 </types>
  <array name="atoms" >
   <dimension dim="1">ion</dimension>
   <field type="string">element</field>
   <field type="int">atomtype</field>
   <set>
    <rc><c>Al</c><c>   1</c></rc>
    <rc><c>Al</c><c>   1</c></rc>
    <rc><c>Al</c><c>   1</c></rc>
    <rc><c>Al</c><c>   1</c></rc>
    <rc><c>Al</c><c>   1</c></rc>
    <rc><c>Al</c><c>   1</c></rc>
    <rc><c>Al</c><c>   1</c></rc>
    <rc><c>Al</c><c>   1</c></rc>
    <rc><c>Al</c><c>   1</c></rc>
    <rc><c>Al</c><c>   1</c></rc>
    <rc><c>Al</c><c>   1</c></rc>
    <rc><c>Al</c><c>   1</c></rc>
    <rc><c>Al</c><c>   1</c></rc>
    <rc><c>Al</c><c>   1</c></rc>
    <rc><c>Al</c><c>   1</c></rc>
    <rc><c>Al</c><c>   1</c></rc>
    <rc><c>Al</c><c>   1</c></rc>
    <rc><c>Al</c><c>   1</c></rc>
    <rc><c>Al</c><c>   1</c></rc>
    <rc><c>Al</c><c>   1</c></rc>
    <rc><c>Al</c><c>   1</c></rc>
    <rc><c>Al</c><c>   1</c></rc>
    <rc><c>Al</c><c>   1</c></rc>
    <rc><c>Al</c><c>   1</c></rc>
    <rc><c>Al</c><c>   1</c></rc>
    <rc><c>Al</c><c>   1</c></rc>
    <rc><c>Al</c><c>   1</c></rc>
    <rc><c>Al</c><c>   1</c></rc>
    <rc><c>Al</c><c>   1</c></rc>
    <rc><c>Al</c><c>   1</c></rc>
    <rc><c>Al</c><c>   1</c></rc>
   </set>
  </array>
  <array name="atomtypes" >
   <dimension dim="1">type</dimension>
   <field type="int">atomspertype</field>
   <field type="string">element</field>
   <field>mass</field>
   <field>valence</field>
   <field type="string">pseudopotential</field>
   <set>
    <rc><c>  31</c><c>Al</c><c>     26.98200000</c><c>      3.00000000</c><c> PAW_PBE Al 04Jan2001                   </c></rc>
   </set>
  </array>
 </atominfo>
 <structure name="initialpos" >
  <crystal>
   <varray name="basis" >
    <v>       8.08705400       0.00000000       0.00000000 </v>
    <v>       0.00000000       8.08705400       0.00000000 </v>
    <v>       0.00000000       0.00000000       8.08705400 </v>
   </varray>
   <i name="volume">    528.89690930 </i>
   <varray name="rec_basis" >
    <v>       0.12365442       0.00000000       0.00000000 </v>
    <v>       0.00000000       0.12365442       0.00000000 </v>
    <v>       0.00000000       0.00000000       0.12365442 </v>
   </varray>
  </crystal>
  <varray name="positions" >
   <v>       0.99948100       0.00000000       0.99948100 </v>
   <v>       0.25000000       0.00000000       0.25000000 </v>
   <v>       0.25000000       0.25326400       0.00326400 </v>
   <v>       0.00326400       0.25326400       0.25000000 </v>
   <v>       0.50051900       0.00000000       0.99948100 </v>
   <v>       0.75000000       0.00000000       0.25000000 </v>
   <v>       0.75000000       0.24948100       0.99948100 </v>
   <v>       0.49673600       0.25326400       0.25000000 </v>
   <v>       0.00326400       0.50000000       0.00326400 </v>
   <v>       0.25000000       0.74673600       0.00326400 </v>
   <v>       0.00326400       0.74673600       0.25000000 </v>
   <v>       0.49673600       0.50000000       0.00326400 </v>
   <v>       0.75000000       0.50000000       0.25000000 </v>
   <v>       0.75000000       0.75051900       0.99948100 </v>
   <v>       0.49673600       0.74673600       0.25000000 </v>
   <v>       0.99948100       0.00000000       0.50051900 </v>
   <v>       0.25000000       0.00000000       0.75000000 </v>
   <v>       0.25000000       0.25326400       0.49673600 </v>
   <v>       0.99948100       0.24948100       0.75000000 </v>
   <v>       0.50051900       0.00000000       0.50051900 </v>
   <v>       0.75000000       0.00000000       0.75000000 </v>
   <v>       0.75000000       0.24948100       0.50051900 </v>
   <v>       0.50051900       0.24948100       0.75000000 </v>
   <v>       0.00326400       0.50000000       0.49673600 </v>
   <v>       0.25000000       0.50000000       0.75000000 </v>
   <v>       0.25000000       0.74673600       0.49673600 </v>
   <v>       0.99948100       0.75051900       0.75000000 </v>
   <v>       0.49673600       0.50000000       0.49673600 </v>
   <v>       0.75000000       0.50000000       0.75000000 </v>
   <v>       0.75000000       0.75051900       0.50051900 </v>
   <v>       0.50051900       0.75051900       0.75000000 </v>
  </varray>
 </structure>
 <calculation>
  <scstep>
   <time name="diag">    2.25    1.48</time>
   <time name="diis">   11.42    3.45</time>
   <time name="orth">    0.17    0.04</time>
   <time name="total">   15.84    6.87</time>
   <energy>
    <i name="alphaZ">     -6.10292531 </i>
    <i name="ewald">  -2232.11856385 </i>
    <i name="hartreedc">    -17.01589773 </i>
    <i name="XCdc">   -814.85629310 </i>
    <i name="pawpsdc">   1102.18190231 </i>
    <i name="pawaedc">   -111.56847430 </i>
    <i name="eentropy">     -0.03402879 </i>
    <i name="bandstr">    724.38229597 </i>
    <i name="atom">   1659.66634407 </i>
    <i name="e_fr_energy">    304.53435928 </i>
    <i name="e_wo_entrp">    304.56838807 </i>
    <i name="e_0_energy">    304.54570221 </i>
   </energy>
  </scstep>
  <scstep>
   <time name="diag">    2.16    1.47</time>
   <time name="diis">   11.02    3.41</time>
   <time name="orth">    0.17    0.04</time>
   <time name="total">   13.46    4.96</time>
   <energy>
    <i name="e_fr_energy">    -12.78222321 </i>
    <i name="e_wo_entrp">    -12.71255136 </i>
    <i name="e_0_energy">    -12.75899926 </i>
   </energy>
  </scstep>
  <scstep>
   <time name="diag">    2.17    1.46</time>
   <time name="diis">   11.26    3.44</time>
   <time name="orth">    0.16    0.04</time>
   <time name="total">   13.61    4.94</time>
   <energy>
    <i name="e_fr_energy">    -86.47077791 </i>
    <i name="e_wo_entrp">    -86.41725786 </i>
    <i name="e_0_energy">    -86.45293789 </i>
   </energy>
  </scstep>
  <scstep>
   <time name="diag">    2.03    1.46</time>
   <time name="diis">   10.88    3.40</time>
   <time name="orth">    0.17    0.04</time>
   <time name="total">   13.17    4.92</time>
   <energy>
    <i name="e_fr_energy">   -104.11396593 </i>
    <i name="e_wo_entrp">   -104.13238700 </i>
    <i name="e_0_energy">   -104.12010629 </i>
   </energy>
  </scstep>
  <scstep>
   <time name="diag">    2.09    1.47</time>
   <time name="diis">   11.71    3.84</time>
   <time name="orth">    0.17    0.04</time>
   <time name="total">   14.07    5.39</time>
   <energy>
    <i name="e_fr_energy">   -110.65405030 </i>
    <i name="e_wo_entrp">   -110.62849644 </i>
    <i name="e_0_energy">   -110.64553235 </i>
   </energy>
  </scstep>
  <scstep>
   <time name="diag">    2.54    1.73</time>
   <time name="diis">   12.17    3.95</time>
   <time name="orth">    0.17    0.04</time>
   <time name="total">   14.89    5.72</time>
   <energy>
    <i name="e_fr_energy">   -113.37145012 </i>
    <i name="e_wo_entrp">   -113.34758104 </i>
    <i name="e_0_energy">   -113.36349376 </i>
   </energy>
  </scstep>
  <scstep>
   <time name="diag">    2.34    1.69</time>
   <time name="diis">   12.48    4.00</time>
   <time name="orth">    0.17    0.04</time>
   <time name="total">   15.08    5.76</time>
   <energy>
    <i name="e_fr_energy">   -114.44590777 </i>
    <i name="e_wo_entrp">   -114.40308007 </i>
    <i name="e_0_energy">   -114.43163187 </i>
   </energy>
  </scstep>
  <scstep>
   <time name="diag">    2.54    1.73</time>
   <time name="diis">   12.12    3.94</time>
   <time name="orth">    0.17    0.04</time>
   <time name="total">   14.85    5.72</time>
   <energy>
    <i name="e_fr_energy">   -114.92953868 </i>
    <i name="e_wo_entrp">   -114.87024044 </i>
    <i name="e_0_energy">   -114.90977260 </i>
   </energy>
  </scstep>
  <scstep>
   <time name="diag">    2.42    1.69</time>
   <time name="diis">   28.96    8.44</time>
   <time name="orth">    0.17    0.04</time>
   <time name="total">   31.56   10.17</time>
   <energy>
    <i name="e_fr_energy">   -115.35186480 </i>
    <i name="e_wo_entrp">   -115.30089294 </i>
    <i name="e_0_energy">   -115.33487418 </i>
   </energy>
  </scstep>
  <scstep>
   <time name="diag">    2.29    1.64</time>
   <time name="diis">   28.13    8.13</time>
   <time name="orth">    0.16    0.04</time>
   <time name="total">   30.60    9.81</time>
   <energy>
    <i name="e_fr_energy">   -115.42411140 </i>
    <i name="e_wo_entrp">   -115.37478017 </i>
    <i name="e_0_energy">   -115.40766766 </i>
   </energy>
  </scstep>
  <scstep>
   <time name="diag">    2.30    1.65</time>
   <time name="diis">   24.79    7.18</time>
   <time name="orth">    0.16    0.04</time>
   <time name="total">   27.26    8.87</time>
   <energy>
    <i name="e_fr_energy">   -115.42740096 </i>
    <i name="e_wo_entrp">   -115.37684872 </i>
    <i name="e_0_energy">   -115.41055021 </i>
   </energy>
  </scstep>
  <scstep>
   <time name="diag">    2.32    1.66</time>
   <time name="diis">   19.40    5.68</time>
   <time name="orth">    0.17    0.04</time>
   <time name="total">   23.12    8.51</time>
   <energy>
    <i name="e_fr_energy">   -115.42743973 </i>
    <i name="e_wo_entrp">   -115.37688990 </i>
    <i name="e_0_energy">   -115.41058979 </i>
   </energy>
  </scstep>
  <scstep>
   <time name="diag">    3.25    2.48</time>
   <time name="diis">   24.79    7.42</time>
   <time name="orth">    0.16    0.04</time>
   <time name="total">   32.03   13.67</time>
   <energy>
    <i name="e_fr_energy">   -114.89232239 </i>
    <i name="e_wo_entrp">   -114.84264361 </i>
    <i name="e_0_energy">   -114.87576280 </i>
   </energy>
  </scstep>
  <scstep>
   <time name="diag">    2.94    2.25</time>
   <time name="diis">   25.36    7.47</time>
   <time name="orth">    0.17    0.04</time>
   <time name="total">   32.45   13.67</time>
   <energy>
    <i name="e_fr_energy">   -114.62659024 </i>
    <i name="e_wo_entrp">   -114.57611460 </i>
    <i name="e_0_energy">   -114.60976503 </i>
   </energy>
  </scstep>
  <scstep>
   <time name="diag">    2.84    2.13</time>
   <time name="diis">   25.63    7.57</time>
   <time name="orth">    0.16    0.04</time>
   <time name="total">   32.48   13.48</time>
   <energy>
    <i name="e_fr_energy">   -114.60374290 </i>
    <i name="e_wo_entrp">   -114.55345523 </i>
    <i name="e_0_energy">   -114.58698034 </i>
   </energy>
  </scstep>
  <scstep>
   <time name="diag">    2.57    1.80</time>
   <time name="diis">   25.35    7.47</time>
   <time name="orth">    0.17    0.04</time>
   <time name="total">   31.51   12.55</time>
   <energy>
    <i name="e_fr_energy">   -114.60308054 </i>
    <i name="e_wo_entrp">   -114.55273884 </i>
    <i name="e_0_energy">   -114.58629997 </i>
   </energy>
  </scstep>
  <scstep>
   <time name="diag">    2.57    1.80</time>
   <time name="diis">   19.33    5.72</time>
   <time name="orth">    0.16    0.04</time>
   <time name="total">   24.31    9.74</time>
   <energy>
    <i name="alphaZ">     -6.10292531 </i>
    <i name="ewald">  -2232.11856385 </i>
    <i name="hartreedc">    -19.21107407 </i>
    <i name="XCdc">   -811.44468303 </i>
    <i name="pawpsdc">   1106.80422398 </i>
    <i name="pawaedc">   -116.60253542 </i>
    <i name="eentropy">     -0.05027994 </i>
    <i name="bandstr">    304.45638579 </i>
    <i name="atom">   1659.66634407 </i>
    <i name="e_fr_energy">   -114.60310778 </i>
    <i name="e_wo_entrp">   -114.55282784 </i>
    <i name="e_0_energy">   -114.58634780 </i>
   </energy>
  </scstep>
  <structure>
   <crystal>
    <varray name="basis" >
     <v>       8.08705400       0.00000000       0.00000000 </v>
     <v>       0.00000000       8.08705400       0.00000000 </v>
     <v>       0.00000000       0.00000000       8.08705400 </v>
    </varray>
    <i name="volume">    528.89690930 </i>
    <varray name="rec_basis" >
     <v>       0.12365442       0.00000000       0.00000000 </v>
     <v>       0.00000000       0.12365442       0.00000000 </v>
     <v>       0.00000000       0.00000000       0.12365442 </v>
    </varray>
   </crystal>
   <varray name="positions" >
    <v>       0.99948100       0.00000000       0.99948100 </v>
    <v>       0.25000000       0.00000000       0.25000000 </v>
    <v>       0.25000000       0.25326400       0.00326400 </v>
    <v>       0.00326400       0.25326400       0.25000000 </v>
    <v>       0.50051900       0.00000000       0.99948100 </v>
    <v>       0.75000000       0.00000000       0.25000000 </v>
    <v>       0.75000000       0.24948100       0.99948100 </v>
    <v>       0.49673600       0.25326400       0.25000000 </v>
    <v>       0.00326400       0.50000000       0.00326400 </v>
    <v>       0.25000000       0.74673600       0.00326400 </v>
    <v>       0.00326400       0.74673600       0.25000000 </v>
    <v>       0.49673600       0.50000000       0.00326400 </v>
    <v>       0.75000000       0.50000000       0.25000000 </v>
    <v>       0.75000000       0.75051900       0.99948100 </v>
    <v>       0.49673600       0.74673600       0.25000000 </v>
    <v>       0.99948100       0.00000000       0.50051900 </v>
    <v>       0.25000000       0.00000000       0.75000000 </v>
    <v>       0.25000000       0.25326400       0.49673600 </v>
    <v>       0.99948100       0.24948100       0.75000000 </v>
    <v>       0.50051900       0.00000000       0.50051900 </v>
    <v>       0.75000000       0.00000000       0.75000000 </v>
    <v>       0.75000000       0.24948100       0.50051900 </v>
    <v>       0.50051900       0.24948100       0.75000000 </v>
    <v>       0.00326400       0.50000000       0.49673600 </v>
    <v>       0.25000000       0.50000000       0.75000000 </v>
    <v>       0.25000000       0.74673600       0.49673600 </v>
    <v>       0.99948100       0.75051900       0.75000000 </v>
    <v>       0.49673600       0.50000000       0.49673600 </v>
    <v>       0.75000000       0.50000000       0.75000000 </v>
    <v>       0.75000000       0.75051900       0.50051900 </v>
    <v>       0.50051900       0.75051900       0.75000000 </v>
   </varray>
  </structure>
  <varray name="forces" >
   <v>       0.02084404       0.00000000       0.02084404 </v>
   <v>       0.00000000       0.00000000       0.00000000 </v>
   <v>       0.00000000      -0.02498321      -0.02498321 </v>
   <v>      -0.02498321      -0.02498321       0.00000000 </v>
   <v>      -0.02084404       0.00000000       0.02084404 </v>
   <v>       0.00000000       0.00000000       0.00000000 </v>
   <v>       0.00000000       0.02084404       0.02084404 </v>
   <v>       0.02498321      -0.02498321       0.00000000 </v>
   <v>      -0.02498321       0.00000000      -0.02498321 </v>
   <v>       0.00000000       0.02498321      -0.02498321 </v>
   <v>      -0.02498321       0.02498321       0.00000000 </v>
   <v>       0.02498321       0.00000000      -0.02498321 </v>
   <v>       0.00000000       0.00000000       0.00000000 </v>
   <v>       0.00000000      -0.02084404       0.02084404 </v>
   <v>       0.02498321       0.02498321       0.00000000 </v>
   <v>       0.02084404       0.00000000      -0.02084404 </v>
   <v>       0.00000000       0.00000000       0.00000000 </v>
   <v>       0.00000000      -0.02498321       0.02498321 </v>
   <v>       0.02084404       0.02084404       0.00000000 </v>
   <v>      -0.02084404       0.00000000      -0.02084404 </v>
   <v>       0.00000000       0.00000000       0.00000000 </v>
   <v>       0.00000000       0.02084404      -0.02084404 </v>
   <v>      -0.02084404       0.02084404       0.00000000 </v>
   <v>      -0.02498321       0.00000000       0.02498321 </v>
   <v>       0.00000000       0.00000000       0.00000000 </v>
   <v>       0.00000000       0.02498321       0.02498321 </v>
   <v>       0.02084404      -0.02084404       0.00000000 </v>
   <v>       0.02498321       0.00000000       0.02498321 </v>
   <v>       0.00000000       0.00000000       0.00000000 </v>
   <v>       0.00000000      -0.02084404      -0.02084404 </v>
   <v>      -0.02084404      -0.02084404       0.00000000 </v>
  </varray>
  <varray name="stress" >
   <v>      -7.90014725       0.00000000       0.00000000 </v>
   <v>       0.00000000      -7.90014725       0.00000000 </v>
   <v>       0.00000000       0.00000000      -7.90014725 </v>
  </varray>
  <energy>
   <i name="e_fr_energy">   -114.60310778 </i>
   <i name="e_wo_entrp">   -114.58634780 </i>
   <i name="e_0_energy">     -0.05027994 </i>
  </energy>
  <time name="totalsc">  408.98  160.95</time>
  <eigenvalues>
   <array>
    <dimension dim="1">band</dimension>
    <dimension dim="2">kpoint</dimension>
    <dimension dim="3">spin</dimension>
    <field>eigene</field>
    <field>occ</field>
    <set>
     <set comment="spin 1">
      <set comment="kpoint 1">
       <r>   -2.9338    1.0000 </r>
       <r>   -1.8587    1.0000 </r>
       <r>   -1.8587    1.0000 </r>
       <r>   -1.6862    1.0000 </r>
       <r>   -0.7437    1.0000 </r>
       <r>   -0.7437    1.0000 </r>
       <r>   -0.4975    1.0000 </r>
       <r>    0.3599    1.0000 </r>
       <r>    0.3599    1.0000 </r>
       <r>    0.4266    1.0000 </r>
       <r>    0.6051    1.0000 </r>
       <r>    1.4282    1.0000 </r>
       <r>    1.4282    1.0000 </r>
       <r>    1.4566    1.0000 </r>
       <r>    1.5633    1.0000 </r>
       <r>    1.5633    1.0000 </r>
       <r>    1.9079    1.0000 </r>
       <r>    2.6339    1.0000 </r>
       <r>    2.6339    1.0000 </r>
       <r>    2.7514    1.0000 </r>
       <r>    3.5950    1.0000 </r>
       <r>    3.5950    1.0000 </r>
       <r>    3.6963    1.0000 </r>
       <r>    3.6975    1.0000 </r>
       <r>    3.6975    1.0000 </r>
       <r>    3.9893    1.0000 </r>
       <r>    4.6222    1.0000 </r>
       <r>    4.6222    1.0000 </r>
       <r>    4.6539    1.0000 </r>
       <r>    4.7172    1.0000 </r>
       <r>    4.7172    1.0000 </r>
       <r>    4.9102    1.0000 </r>
       <r>    4.9102    1.0000 </r>
       <r>    4.9154    1.0000 </r>
       <r>    5.1736    1.0000 </r>
       <r>    5.7631    1.0000 </r>
       <r>    5.7631    1.0000 </r>
       <r>    6.2221    1.0000 </r>
       <r>    6.7768    1.0000 </r>
       <r>    6.7935    1.0000 </r>
       <r>    6.7935    1.0000 </r>
       <r>    6.9706    1.0000 </r>
       <r>    7.0228    1.0000 </r>
       <r>    7.0312    1.0000 </r>
       <r>    7.0312    1.0000 </r>
       <r>    7.8350    0.6768 </r>
       <r>    7.8813    0.4855 </r>
       <r>    7.8813    0.4855 </r>
       <r>    8.0963   -0.0322 </r>
       <r>    8.0963   -0.0322 </r>
       <r>    8.1541   -0.0324 </r>
       <r>    8.1957   -0.0236 </r>
       <r>    8.1957   -0.0236 </r>
       <r>    8.3189   -0.0039 </r>
       <r>    9.1493    0.0000 </r>
       <r>    9.1493    0.0000 </r>
       <r>    9.1808    0.0000 </r>
       <r>    9.4091    0.0000 </r>
       <r>    9.4091    0.0000 </r>
       <r>    9.4350    0.0000 </r>
       <r>    9.9980    0.0000 </r>
       <r>   10.0389    0.0000 </r>
      </set>
     </set>
    </set>
   </array>
  </eigenvalues>
  <separator name="orbital magnetization" >
   <v name="MAGDIPOLOUT">      0.00000000      0.00000000      0.00000000</v>
  </separator>
  <dos>
   <i name="efermi">      7.87785823 </i>
   <total>
    <array>
     <dimension dim="1">gridpoints</dimension>
     <dimension dim="2">spin</dimension>
     <field>energy</field>
     <field>total</field>
     <field>integrated</field>
     <set>
      <set comment="spin 1">
       <r>  -4.9338   0.0000   0.0000 </r>
       <r>  -4.8772   0.0000   0.0000 </r>
       <r>  -4.8206   0.0000   0.0000 </r>
       <r>  -4.7640   0.0000   0.0000 </r>
       <r>  -4.7075   0.0000   0.0000 </r>
       <r>  -4.6509   0.0000   0.0000 </r>
       <r>  -4.5943   0.0000   0.0000 </r>
       <r>  -4.5377   0.0000   0.0000 </r>
       <r>  -4.4812   0.0000   0.0000 </r>
       <r>  -4.4246   0.0000   0.0000 </r>
       <r>  -4.3680   0.0000   0.0000 </r>
       <r>  -4.3114   0.0000   0.0000 </r>
       <r>  -4.2549   0.0000   0.0000 </r>
       <r>  -4.1983   0.0000   0.0000 </r>
       <r>  -4.1417   0.0000   0.0000 </r>
       <r>  -4.0851   0.0000   0.0000 </r>
       <r>  -4.0286   0.0000   0.0000 </r>
       <r>  -3.9720   0.0000   0.0000 </r>
       <r>  -3.9154   0.0000   0.0000 </r>
       <r>  -3.8588   0.0000   0.0000 </r>
       <r>  -3.8023   0.0000   0.0000 </r>
       <r>  -3.7457   0.0000   0.0000 </r>
       <r>  -3.6891   0.0000   0.0000 </r>
       <r>  -3.6325  -0.0001   0.0000 </r>
       <r>  -3.5760  -0.0008  -0.0001 </r>
       <r>  -3.5194  -0.0039  -0.0003 </r>
       <r>  -3.4628  -0.0160  -0.0012 </r>
       <r>  -3.4062  -0.0532  -0.0042 </r>
       <r>  -3.3497  -0.1428  -0.0123 </r>
       <r>  -3.2931  -0.2981  -0.0291 </r>
       <r>  -3.2365  -0.4409  -0.0541 </r>
       <r>  -3.1799  -0.2975  -0.0709 </r>
       <r>  -3.1234   0.5871  -0.0377 </r>
       <r>  -3.0668   2.5373   0.1059 </r>
       <r>  -3.0102   5.2445   0.4026 </r>
       <r>  -2.9536   7.6059   0.8329 </r>
       <r>  -2.8971   8.3452   1.3050 </r>
       <r>  -2.8405   7.0216   1.7023 </r>
       <r>  -2.7839   4.4118   1.9519 </r>
       <r>  -2.7273   1.8462   2.0563 </r>
       <r>  -2.6708   0.2189   2.0687 </r>
       <r>  -2.6142  -0.3956   2.0463 </r>
       <r>  -2.5576  -0.4116   2.0230 </r>
       <r>  -2.5010  -0.2482   2.0090 </r>
       <r>  -2.4444  -0.1168   2.0024 </r>
       <r>  -2.3879  -0.0699   1.9984 </r>
       <r>  -2.3313  -0.1175   1.9918 </r>
       <r>  -2.2747  -0.2910   1.9753 </r>
       <r>  -2.2181  -0.6105   1.9408 </r>
       <r>  -2.1616  -0.9318   1.8880 </r>
       <r>  -2.1050  -0.7338   1.8465 </r>
       <r>  -2.0484   0.8774   1.8962 </r>
       <r>  -1.9918   4.6236   2.1578 </r>
       <r>  -1.9353  10.1547   2.7323 </r>
       <r>  -1.8787  15.7187   3.6216 </r>
       <r>  -1.8221  19.1046   4.7024 </r>
       <r>  -1.7655  19.1574   5.7862 </r>
       <r>  -1.7090  16.3543   6.7115 </r>
       <r>  -1.6524  12.0637   7.3940 </r>
       <r>  -1.5958   7.5756   7.8226 </r>
       <r>  -1.5392   3.7660   8.0357 </r>
       <r>  -1.4827   1.1358   8.0999 </r>
       <r>  -1.4261  -0.2191   8.0875 </r>
       <r>  -1.3695  -0.6039   8.0534 </r>
       <r>  -1.3129  -0.5060   8.0247 </r>
       <r>  -1.2564  -0.3231   8.0065 </r>
       <r>  -1.1998  -0.2643   7.9915 </r>
       <r>  -1.1432  -0.4054   7.9686 </r>
       <r>  -1.0866  -0.7119   7.9283 </r>
       <r>  -1.0301  -0.9112   7.8767 </r>
       <r>  -0.9735  -0.3278   7.8582 </r>
       <r>  -0.9169   1.9436   7.9682 </r>
       <r>  -0.8603   6.2697   8.3229 </r>
       <r>  -0.8038  11.6140   8.9799 </r>
       <r>  -0.7472  15.7356   9.8702 </r>
       <r>  -0.6906  16.8241  10.8220 </r>
       <r>  -0.6340  15.0686  11.6745 </r>
       <r>  -0.5775  12.2929  12.3700 </r>
       <r>  -0.5209  10.0175  12.9367 </r>
       <r>  -0.4643   8.2630  13.4042 </r>
       <r>  -0.4077   6.2744  13.7592 </r>
       <r>  -0.3512   3.8484  13.9769 </r>
       <r>  -0.2946   1.5823  14.0665 </r>
       <r>  -0.2380   0.1174  14.0731 </r>
       <r>  -0.1814  -0.4598  14.0471 </r>
       <r>  -0.1249  -0.5262  14.0173 </r>
       <r>  -0.0683  -0.5294  13.9874 </r>
       <r>  -0.0117  -0.7376  13.9456 </r>
       <r>   0.0449  -1.1212  13.8822 </r>
       <r>   0.1015  -1.1875  13.8150 </r>
       <r>   0.1580   0.1146  13.8215 </r>
       <r>   0.2146   3.9630  14.0457 </r>
       <r>   0.2712  10.5404  14.6420 </r>
       <r>   0.3278  18.0886  15.6654 </r>
       <r>   0.3843  23.5114  16.9956 </r>
       <r>   0.4409  24.5535  18.3847 </r>
       <r>   0.4975  21.5131  19.6018 </r>
       <r>   0.5541  16.6254  20.5424 </r>
       <r>   0.6106  11.9285  21.2173 </r>
       <r>   0.6672   8.0549  21.6730 </r>
       <r>   0.7238   4.8110  21.9452 </r>
       <r>   0.7804   2.1696  22.0679 </r>
       <r>   0.8369   0.3897  22.0900 </r>
       <r>   0.8935  -0.4501  22.0645 </r>
       <r>   0.9501  -0.6610  22.0271 </r>
       <r>   1.0067  -0.7264  21.9860 </r>
       <r>   1.0632  -1.0024  21.9293 </r>
       <r>   1.1198  -1.4853  21.8453 </r>
       <r>   1.1764  -1.5684  21.7565 </r>
       <r>   1.2330   0.0711  21.7606 </r>
       <r>   1.2895   4.9664  22.0415 </r>
       <r>   1.3461  13.5654  22.8090 </r>
       <r>   1.4027  24.0327  24.1687 </r>
       <r>   1.4593  32.5641  26.0110 </r>
       <r>   1.5158  35.4800  28.0183 </r>
       <r>   1.5724  31.5641  29.8040 </r>
       <r>   1.6290  22.8166  31.0949 </r>
       <r>   1.6856  13.2089  31.8422 </r>
       <r>   1.7421   6.4431  32.2067 </r>
       <r>   1.7987   4.0867  32.4379 </r>
       <r>   1.8553   5.0818  32.7254 </r>
       <r>   1.9119   6.8497  33.1130 </r>
       <r>   1.9684   7.1972  33.5202 </r>
       <r>   2.0250   5.6156  33.8379 </r>
       <r>   2.0816   3.0949  34.0130 </r>
       <r>   2.1382   0.9134  34.0646 </r>
       <r>   2.1947  -0.3590  34.0443 </r>
       <r>   2.2513  -0.9353  33.9914 </r>
       <r>   2.3079  -1.2297  33.9218 </r>
       <r>   2.3645  -1.2327  33.8521 </r>
       <r>   2.4210  -0.2495  33.8380 </r>
       <r>   2.4776   2.7586  33.9940 </r>
       <r>   2.5342   8.2163  34.4589 </r>
       <r>   2.5908  14.9827  35.3065 </r>
       <r>   2.6474  20.4721  36.4648 </r>
       <r>   2.7039  22.1676  37.7189 </r>
       <r>   2.7605  19.3578  38.8141 </r>
       <r>   2.8171  13.5437  39.5803 </r>
       <r>   2.8737   7.2684  39.9915 </r>
       <r>   2.9302   2.5289  40.1346 </r>
       <r>   2.9868  -0.0248  40.1332 </r>
       <r>   3.0434  -0.8578  40.0847 </r>
       <r>   3.1000  -0.8388  40.0372 </r>
       <r>   3.1565  -0.6859  39.9984 </r>
       <r>   3.2131  -0.7910  39.9537 </r>
       <r>   3.2697  -1.2265  39.8843 </r>
       <r>   3.3263  -1.6426  39.7913 </r>
       <r>   3.3828  -1.0450  39.7322 </r>
       <r>   3.4394   2.1377  39.8532 </r>
       <r>   3.4960   9.1941  40.3733 </r>
       <r>   3.5526  19.6488  41.4850 </r>
       <r>   3.6091  30.3893  43.2043 </r>
       <r>   3.6657  36.7996  45.2862 </r>
       <r>   3.7223  35.7339  47.3079 </r>
       <r>   3.7789  28.0375  48.8941 </r>
       <r>   3.8354  18.1182  49.9192 </r>
       <r>   3.8920  10.6497  50.5217 </r>
       <r>   3.9486   7.3549  50.9378 </r>
       <r>   4.0052   6.6767  51.3155 </r>
       <r>   4.0617   6.0912  51.6601 </r>
       <r>   4.1183   4.3999  51.9091 </r>
       <r>   4.1749   2.0418  52.0246 </r>
       <r>   4.2315  -0.0853  52.0198 </r>
       <r>   4.2880  -1.5704  51.9309 </r>
       <r>   4.3446  -2.2958  51.8010 </r>
       <r>   4.4012  -1.6146  51.7097 </r>
       <r>   4.4578   1.9366  51.8192 </r>
       <r>   4.5143   9.6136  52.3631 </r>
       <r>   4.5709  20.6557  53.5317 </r>
       <r>   4.6275  31.6080  55.3200 </r>
       <r>   4.6841  38.2859  57.4860 </r>
       <r>   4.7406  39.0643  59.6961 </r>
       <r>   4.7972  35.9720  61.7312 </r>
       <r>   4.8538  32.1346  63.5493 </r>
       <r>   4.9104  28.5973  65.1672 </r>
       <r>   4.9669  24.3313  66.5437 </r>
       <r>   5.0235  18.8430  67.6098 </r>
       <r>   5.0801  13.4636  68.3715 </r>
       <r>   5.1367   9.7735  68.9245 </r>
       <r>   5.1933   7.7514  69.3630 </r>
       <r>   5.2498   6.1177  69.7091 </r>
       <r>   5.3064   3.9882  69.9347 </r>
       <r>   5.3630   1.5942  70.0249 </r>
       <r>   5.4196  -0.3399  70.0057 </r>
       <r>   5.4761  -1.2679  69.9340 </r>
       <r>   5.5327  -0.7548  69.8913 </r>
       <r>   5.5893   1.7352  69.9894 </r>
       <r>   5.6459   6.3471  70.3485 </r>
       <r>   5.7024  11.9173  71.0228 </r>
       <r>   5.7590  15.9514  71.9252 </r>
       <r>   5.8156  16.1748  72.8403 </r>
       <r>   5.8722  12.4115  73.5425 </r>
       <r>   5.9287   6.8354  73.9292 </r>
       <r>   5.9853   2.3501  74.0622 </r>
       <r>   6.0419   0.7548  74.1049 </r>
       <r>   6.0985   2.0767  74.2224 </r>
       <r>   6.1550   4.9536  74.5026 </r>
       <r>   6.2116   7.4489  74.9240 </r>
       <r>   6.2682   8.0348  75.3786 </r>
       <r>   6.3248   6.3947  75.7404 </r>
       <r>   6.3813   3.4344  75.9347 </r>
       <r>   6.4379   0.4916  75.9625 </r>
       <r>   6.4945  -1.3711  75.8849 </r>
       <r>   6.5511  -1.3300  75.8097 </r>
       <r>   6.6076   1.4563  75.8921 </r>
       <r>   6.6642   7.3651  76.3088 </r>
       <r>   6.7208  15.3416  77.1767 </r>
       <r>   6.7774  23.0161  78.4789 </r>
       <r>   6.8339  28.5185  80.0923 </r>
       <r>   6.8905  31.9685  81.9010 </r>
       <r>   6.9471  34.3781  83.8459 </r>
       <r>   7.0037  35.2452  85.8399 </r>
       <r>   7.0602  32.4377  87.6751 </r>
       <r>   7.1168  24.9312  89.0856 </r>
       <r>   7.1734  14.7860  89.9221 </r>
       <r>   7.2300   5.7459  90.2472 </r>
       <r>   7.2865   0.2776  90.2629 </r>
       <r>   7.3431  -1.6912  90.1672 </r>
       <r>   7.3997  -1.7412  90.0687 </r>
       <r>   7.4563  -1.3940  89.9899 </r>
       <r>   7.5128  -1.3517  89.9134 </r>
       <r>   7.5694  -1.4383  89.8320 </r>
       <r>   7.6260  -0.7227  89.7911 </r>
       <r>   7.6826   2.0959  89.9097 </r>
       <r>   7.7391   7.6876  90.3446 </r>
       <r>   7.7957  14.9458  91.1902 </r>
       <r>   7.8523  21.1861  92.3888 </r>
       <r>   7.9089  24.3654  93.7673 </r>
       <r>   7.9655  25.3518  95.2016 </r>
       <r>   8.0220  27.2657  96.7442 </r>
       <r>   8.0786  31.9748  98.5532 </r>
       <r>   8.1352  37.5818 100.6794 </r>
       <r>   8.1918  39.9050 102.9370 </r>
       <r>   8.2483  36.2905 104.9902 </r>
       <r>   8.3049  27.6871 106.5566 </r>
       <r>   8.3615  17.4173 107.5420 </r>
       <r>   8.4181   8.6219 108.0298 </r>
       <r>   8.4746   2.7908 108.1877 </r>
       <r>   8.5312  -0.1541 108.1789 </r>
       <r>   8.5878  -1.1005 108.1167 </r>
       <r>   8.6444  -1.0672 108.0563 </r>
       <r>   8.7009  -0.8332 108.0092 </r>
       <r>   8.7575  -0.8317 107.9621 </r>
       <r>   8.8141  -1.1414 107.8975 </r>
       <r>   8.8707  -1.3782 107.8196 </r>
       <r>   8.9272  -0.5492 107.7885 </r>
       <r>   8.9838   2.6583 107.9389 </r>
       <r>   9.0404   8.7852 108.4359 </r>
       <r>   9.0970  16.4141 109.3646 </r>
       <r>   9.1535  22.5519 110.6404 </r>
       <r>   9.2101  25.0575 112.0581 </r>
       <r>   9.2667  24.7497 113.4583 </r>
       <r>   9.3233  24.3349 114.8351 </r>
       <r>   9.3798  25.0102 116.2500 </r>
       <r>   9.4364  24.9268 117.6603 </r>
       <r>   9.4930  21.5092 118.8772 </r>
       <r>   9.5496  14.6373 119.7053 </r>
       <r>   9.6061   6.8811 120.0946 </r>
       <r>   9.6627   1.0452 120.1537 </r>
       <r>   9.7193  -1.7500 120.0547 </r>
       <r>   9.7759  -1.7655 119.9548 </r>
       <r>   9.8324   0.5932 119.9884 </r>
       <r>   9.8890   5.0488 120.2740 </r>
       <r>   9.9456  10.6171 120.8747 </r>
       <r>  10.0022  15.1432 121.7314 </r>
       <r>  10.0587  16.3466 122.6563 </r>
       <r>  10.1153  13.5955 123.4254 </r>
       <r>  10.1719   8.4891 123.9057 </r>
       <r>  10.2285   3.5550 124.1068 </r>
       <r>  10.2850   0.4400 124.1317 </r>
       <r>  10.3416  -0.7447 124.0896 </r>
       <r>  10.3982  -0.7871 124.0451 </r>
       <r>  10.4548  -0.4779 124.0180 </r>
       <r>  10.5114  -0.2142 124.0059 </r>
       <r>  10.5679  -0.0759 124.0016 </r>
       <r>  10.6245  -0.0219 124.0004 </r>
       <r>  10.6811  -0.0052 124.0001 </r>
       <r>  10.7377  -0.0010 124.0000 </r>
       <r>  10.7942  -0.0002 124.0000 </r>
       <r>  10.8508   0.0000 124.0000 </r>
       <r>  10.9074   0.0000 124.0000 </r>
       <r>  10.9640   0.0000 124.0000 </r>
       <r>  11.0205   0.0000 124.0000 </r>
       <r>  11.0771   0.0000 124.0000 </r>
       <r>  11.1337   0.0000 124.0000 </r>
       <r>  11.1903   0.0000 124.0000 </r>
       <r>  11.2468   0.0000 124.0000 </r>
       <r>  11.3034   0.0000 124.0000 </r>
       <r>  11.3600   0.0000 124.0000 </r>
       <r>  11.4166   0.0000 124.0000 </r>
       <r>  11.4731   0.0000 124.0000 </r>
       <r>  11.5297   0.0000 124.0000 </r>
       <r>  11.5863   0.0000 124.0000 </r>
       <r>  11.6429   0.0000 124.0000 </r>
       <r>  11.6994   0.0000 124.0000 </r>
       <r>  11.7560   0.0000 124.0000 </r>
       <r>  11.8126   0.0000 124.0000 </r>
       <r>  11.8692   0.0000 124.0000 </r>
       <r>  11.9257   0.0000 124.0000 </r>
       <r>  11.9823   0.0000 124.0000 </r>
       <r>  12.0389   0.0000 124.0000 </r>
      </set>
     </set>
    </array>
   </total>
  </dos>
 </calculation>
 <structure name="finalpos" >
  <crystal>
   <varray name="basis" >
    <v>       8.08705400       0.00000000       0.00000000 </v>
    <v>       0.00000000       8.08705400       0.00000000 </v>
    <v>       0.00000000       0.00000000       8.08705400 </v>
   </varray>
   <i name="volume">    528.89690930 </i>
   <varray name="rec_basis" >
    <v>       0.12365442       0.00000000       0.00000000 </v>
    <v>       0.00000000       0.12365442       0.00000000 </v>
    <v>       0.00000000       0.00000000       0.12365442 </v>
   </varray>
  </crystal>
  <varray name="positions" >
   <v>       0.99948100       0.00000000       0.99948100 </v>
   <v>       0.25000000       0.00000000       0.25000000 </v>
   <v>       0.25000000       0.25326400       0.00326400 </v>
   <v>       0.00326400       0.25326400       0.25000000 </v>
   <v>       0.50051900       0.00000000       0.99948100 </v>
   <v>       0.75000000       0.00000000       0.25000000 </v>
   <v>       0.75000000       0.24948100       0.99948100 </v>
   <v>       0.49673600       0.25326400       0.25000000 </v>
   <v>       0.00326400       0.50000000       0.00326400 </v>
   <v>       0.25000000       0.74673600       0.00326400 </v>
   <v>       0.00326400       0.74673600       0.25000000 </v>
   <v>       0.49673600       0.50000000       0.00326400 </v>
   <v>       0.75000000       0.50000000       0.25000000 </v>
   <v>       0.75000000       0.75051900       0.99948100 </v>
   <v>       0.49673600       0.74673600       0.25000000 </v>
   <v>       0.99948100       0.00000000       0.50051900 </v>
   <v>       0.25000000       0.00000000       0.75000000 </v>
   <v>       0.25000000       0.25326400       0.49673600 </v>
   <v>       0.99948100       0.24948100       0.75000000 </v>
   <v>       0.50051900       0.00000000       0.50051900 </v>
   <v>       0.75000000       0.00000000       0.75000000 </v>
   <v>       0.75000000       0.24948100       0.50051900 </v>
   <v>       0.50051900       0.24948100       0.75000000 </v>
   <v>       0.00326400       0.50000000       0.49673600 </v>
   <v>       0.25000000       0.50000000       0.75000000 </v>
   <v>       0.25000000       0.74673600       0.49673600 </v>
   <v>       0.99948100       0.75051900       0.75000000 </v>
   <v>       0.49673600       0.50000000       0.49673600 </v>
   <v>       0.75000000       0.50000000       0.75000000 </v>
   <v>       0.75000000       0.75051900       0.50051900 </v>
   <v>       0.50051900       0.75051900       0.75000000 </v>
  </varray>
 </structure>
</modeling>
