 vasp.4.6.28 25Jul05 complex 
 executed on         LinuxIFC_ath date 2013.01.25  10:22:21
 running on    1 nodes
 distr:  one band on    1 nodes,    1 groups


--------------------------------------------------------------------------------------------------------


 INCAR:
 POTCAR:   PAW_GGA La 14Apr2000                   
 POTCAR:   PAW_GGA Ti_sv 07Sep2000                
 POTCAR:   PAW_GGA O 05Jan2001                    
 POTCAR:   PAW_GGA La 14Apr2000                   
   VRHFIN =La : [core=Kr4d]                                                     
   LEXCH  = 91                                                                  
   EATOM  =   866.4740 eV,   63.6840 Ry                                         
                                                                                
   TITEL  = PAW_GGA La 14Apr2000                                                
   LULTRA =        F    use ultrasoft PP ?                                      
   IUNSCR =        1    unscreen: 0-lin 1-nonlin 2-no                           
   RPACOR =    2.300    partial core radius                                     
   POMASS =  138.900; ZVAL   =   11.000    mass and valenz                      
   RCORE  =    2.800    outmost cutoff radius                                   
   RWIGS  =    2.900; RWIGS  =    1.535    wigner-seitz radius (au A)           
   ENMAX  =  219.271; ENMIN  =  164.453 eV                                      
   RCLOC  =    1.601    cutoff for local pot                                    
   LCOR   =        T    correct aug charges                                     
   LPAW   =        T    paw PP                                                  
   EAUG   =  583.575                                                            
   DEXC   =     .000                                                            
   RMAX   =    3.114    core radius for proj-oper                               
   RAUG   =    1.300    factor for augmentation sphere                          
   RDEP   =    2.802    core radius for depl-charge                             
   QCUT   =   -4.014; QGAM   =    8.029    optimization parameters              
                                                                                
   Description                                                                  
     l     E      TYP  RCUT    TYP  RCUT                                        
     0   .000     23  2.800                                                     
     0   .000     23  2.800                                                     
     1   .000     23  2.500                                                     
     1  2.000     23  2.500                                                     
     2   .000     23  2.500                                                     
     2   .000     23  2.500                                                     
     3   .000     23  2.800                                                     
     3   .000     23  2.800                                                     
  local pseudopotential read in
  partial core-charges read in
  atomic valenz-charges read in
  non local Contribution for L=           0  read in
    real space projection operators read in
  non local Contribution for L=           0  read in
    real space projection operators read in
  non local Contribution for L=           1  read in
    real space projection operators read in
  non local Contribution for L=           1  read in
    real space projection operators read in
  non local Contribution for L=           2  read in
    real space projection operators read in
  non local Contribution for L=           2  read in
    real space projection operators read in
  non local Contribution for L=           3  read in
    real space projection operators read in
  non local Contribution for L=           3  read in
    real space projection operators read in
    PAW grid and wavefunctions read in
 
   number of l-projection  operators is LMAX  =           8
   number of lm-projection operators is LMMAX =          32
 
 POTCAR:   PAW_GGA Ti_sv 07Sep2000                
   VRHFIN =Ti: 3p4s3d                                                           
   LEXCH  = 91                                                                  
   EATOM  =  1589.1200 eV,  116.7970 Ry                                         
                                                                                
   TITEL  = PAW_GGA Ti_sv 07Sep2000                                             
   LULTRA =        F    use ultrasoft PP ?                                      
   IUNSCR =        1    unscreen: 0-lin 1-nonlin 2-no                           
   RPACOR =    2.000    partial core radius                                     
   POMASS =   47.880; ZVAL   =   12.000    mass and valenz                      
   RCORE  =    2.300    outmost cutoff radius                                   
   RWIGS  =    2.300; RWIGS  =    1.217    wigner-seitz radius (au A)           
   ENMAX  =  274.616; ENMIN  =  205.962 eV                                      
   RCLOC  =    1.701    cutoff for local pot                                    
   LCOR   =        T    correct aug charges                                     
   LPAW   =        T    paw PP                                                  
   EAUG   =  482.848                                                            
   DEXC   =     .000                                                            
   RMAX   =    2.782    core radius for proj-oper                               
   RAUG   =    1.300    factor for augmentation sphere                          
   RDEP   =    2.381    radius for radial grids                                 
   QCUT   =   -4.493; QGAM   =    8.985    optimization parameters              
                                                                                
   Description                                                                  
     l     E      TYP  RCUT    TYP  RCUT                                        
     0   .000     23  1.800                                                     
     0   .000     23  2.300                                                     
     0   .000     23  1.800                                                     
     0   .000     23  2.300                                                     
     1   .000     23  2.300                                                     
     1  -.100     23  2.300                                                     
     2   .000     23  2.300                                                     
     2   .000     23  2.300                                                     
     3   .000      7   .000                                                     
  local pseudopotential read in
  partial core-charges read in
  atomic valenz-charges read in
  non local Contribution for L=           0  read in
    real space projection operators read in
  non local Contribution for L=           0  read in
    real space projection operators read in
  non local Contribution for L=           1  read in
    real space projection operators read in
  non local Contribution for L=           1  read in
    real space projection operators read in
  non local Contribution for L=           2  read in
    real space projection operators read in
  non local Contribution for L=           2  read in
    real space projection operators read in
    PAW grid and wavefunctions read in
 
   number of l-projection  operators is LMAX  =           6
   number of lm-projection operators is LMMAX =          18
 
 POTCAR:   PAW_GGA O 05Jan2001                    
   VRHFIN =O: s2p4                                                              
   LEXCH  = 91                                                                  
   EATOM  =   433.0277 eV,   31.8266 Ry                                         
                                                                                
   TITEL  = PAW_GGA O 05Jan2001                                                 
   LULTRA =        F    use ultrasoft PP ?                                      
   IUNSCR =        0    unscreen: 0-lin 1-nonlin 2-no                           
   RPACOR =     .000    partial core radius                                     
   POMASS =   16.000; ZVAL   =    6.000    mass and valenz                      
   RCORE  =    1.520    outmost cutoff radius                                   
   RWIGS  =    1.550; RWIGS  =     .820    wigner-seitz radius (au A)           
   ENMAX  =  400.000; ENMIN  =  300.000 eV                                      
   ICORE  =        2    local potential                                         
   LCOR   =        T    correct aug charges                                     
   LPAW   =        T    paw PP                                                  
   EAUG   =  605.392                                                            
   DEXC   =     .000                                                            
   RMAX   =    2.264    core radius for proj-oper                               
   RAUG   =    1.300    factor for augmentation sphere                          
   RDEP   =    1.550    radius for radial grids                                 
   QCUT   =   -5.520; QGAM   =   11.040    optimization parameters              
                                                                                
   Description                                                                  
     l     E      TYP  RCUT    TYP  RCUT                                        
     0   .000     23  1.200                                                     
     0  -.700     23  1.200                                                     
     1   .000     23  1.520                                                     
     1   .600     23  1.520                                                     
     2   .000      7  1.500                                                     
  local pseudopotential read in
  atomic valenz-charges read in
  non local Contribution for L=           0  read in
    real space projection operators read in
  non local Contribution for L=           0  read in
    real space projection operators read in
  non local Contribution for L=           1  read in
    real space projection operators read in
  non local Contribution for L=           1  read in
    real space projection operators read in
    PAW grid and wavefunctions read in
 
   number of l-projection  operators is LMAX  =           4
   number of lm-projection operators is LMMAX =           8
 

 ----------------------------------------------------------------------------- 
|                                                                             |
|  ADVICE TO THIS USER RUNNING 'VASP/VAMP'   (HEAR YOUR MASTER'S VOICE ...):  |
|                                                                             |
|      You have a (more or less) 'large supercell' and for larger cells       |
|      it might be more efficient to use real space projection operators      |
|      So try LREAL= Auto  in the INCAR   file.                               |
|      Mind: If you want to do an extremely accurate calculations keep the    |
|      reciprocal projection scheme          (i.e. LREAL=.FALSE.)             |
|                                                                             |
 ----------------------------------------------------------------------------- 

 PAW_GGA La 14Apr2000                   :
 energy of atom  1       EATOM= -866.4740
 kinetic energy error for atom=    0.0007 (will be added to EATOM!!)
 PAW_GGA Ti_sv 07Sep2000                :
 energy of atom  2       EATOM=-1589.1200
 kinetic energy error for atom=    0.0027 (will be added to EATOM!!)
 PAW_GGA O 05Jan2001                    :
 energy of atom  3       EATOM= -433.0277
 kinetic energy error for atom=    0.0167 (will be added to EATOM!!)
 
 EXHCAR: internal setup
 exchange correlation table for  LEXCH =        7
   RHO(1)=    0.500       N(1)  =     2000
   RHO(2)=  100.500       N(2)  =     4000
 
 POSCAR: endpoint 1                              
  positions in direct lattice
  No initial velocities read in
 


--------------------------------------------------------------------------------------------------------


 ion  position               nearest neighbor table
   1  0.026  0.003  0.992-  33 2.46  18 2.46  24 2.49  22 2.53  17 2.66  23 2.74  21 2.78  27 2.82
                            10 3.27
   2  0.024  0.997  0.480-  22 2.43  19 2.50  37 2.50  31 2.59  26 2.67  24 2.71  18 2.73  20 2.74
                            11 3.24   9 3.27
   3  0.983  0.505  0.028-  25 2.46  27 2.48  21 2.51  36 2.53  24 2.66  18 2.74  34 2.79  15 3.25
                            13 3.30
   4  0.980  0.502  0.534-  26 2.48  36 2.52  20 2.54  39 2.60  27 2.64  21 2.66  37 2.70  31 2.72
                            16 3.24  14 3.24
   5  0.515  1.000  0.976-  30 2.47  23 2.49  17 2.51  33 2.57  32 2.60  38 2.68  34 2.71  16 3.26
                            14 3.28
   6  0.524  0.999  0.478-  19 2.45  38 2.49  30 2.54  32 2.56  35 2.65  31 2.72  29 2.72  37 2.73
                            15 3.24  13 3.24
   7  0.483  0.500  0.029-  28 2.46  34 2.47  25 2.55  29 2.67  23 2.72  35 2.75  17 2.76   9 3.26
                            11 3.26
   8  0.469  0.500  0.519-  35 2.47  39 2.50  28 2.52  29 2.54  20 2.65  26 2.69  38 2.78  10 3.26
                            12 3.26
   9  0.251  0.251  0.255-  25 2.00  17 2.02  19 2.02  20 2.03  29 2.04  18 2.06   7 3.26   2 3.27

  10  0.251  0.250  0.755-  22 2.02  28 2.02  17 2.03  20 2.04  32 2.04  21 2.07   8 3.26   1 3.27

  11  0.251  0.749  0.254-  25 2.00  19 2.02  23 2.03  35 2.03  26 2.04  24 2.04   2 3.24   7 3.26

  12  0.249  0.750  0.755-  28 2.02  22 2.03  23 2.03  27 2.04  38 2.04  26 2.04   8 3.26
  13  0.755  0.249  0.257-  18 1.98  31 1.99  30 2.00  36 2.00  29 2.03   6 3.24   3 3.30
  14  0.753  0.247  0.752-  33 1.99  31 2.00  21 2.00  39 2.03  32 2.04   4 3.24   5 3.28
  15  0.750  0.750  0.253-  24 2.02  34 2.03  36 2.03  35 2.04  37 2.04  30 2.04   6 3.24   3 3.25

  16  0.748  0.749  0.755-  39 2.03  34 2.03  38 2.04  27 2.04  37 2.05  33 2.05   4 3.24   5 3.26

  17  0.285  0.215  0.007-   9 2.02  10 2.03   5 2.51   1 2.66   7 2.76
  18  0.997  0.215  0.215-  13 1.98   9 2.06   1 2.46   2 2.73   3 2.74
  19  0.273  1.000  0.295-   9 2.02  11 2.02   6 2.45   2 2.50
  20  0.212  0.286  0.504-   9 2.03  10 2.04   4 2.54   8 2.65   2 2.74
  21  0.998  0.292  0.795-  14 2.00  10 2.07   3 2.51   4 2.66   1 2.78
  22  0.203  0.000  0.732-  10 2.02  12 2.03   2 2.43   1 2.53
  23  0.291  0.784  0.006-  11 2.03  12 2.03   5 2.49   7 2.72   1 2.74
  24  0.998  0.784  0.214-  15 2.02  11 2.04   1 2.49   3 2.66   2 2.71
  25  0.230  0.499  0.220-   9 2.00  11 2.00   3 2.46   7 2.55
  26  0.207  0.714  0.503-  11 2.04  12 2.04   4 2.48   2 2.67   8 2.69
  27  1.000  0.710  0.793-  12 2.04  16 2.04   3 2.48   4 2.64   1 2.82
  28  0.295  0.500  0.779-  10 2.02  12 2.02   7 2.46   8 2.52
  29  0.504  0.284  0.287-  13 2.03   9 2.04   8 2.54   7 2.67   6 2.72
  30  0.710  0.003  0.223-  13 2.00  15 2.04   5 2.47   6 2.54
  31  0.787  0.219  0.505-  13 1.99  14 2.00   2 2.59   6 2.72   4 2.72
  32  0.501  0.208  0.723-  14 2.04  10 2.04   6 2.56   5 2.60
  33  0.780  0.002  0.798-  14 1.99  16 2.05   1 2.46   5 2.57
  34  0.704  0.716  0.004-  15 2.03  16 2.03   7 2.47   5 2.71   3 2.79
  35  0.502  0.718  0.299-  11 2.03  15 2.04   8 2.47   6 2.65   7 2.75
  36  0.789  0.498  0.275-  13 2.00  15 2.03   4 2.52   3 2.53
  37  0.793  0.785  0.505-  15 2.04  16 2.05   2 2.50   4 2.70   6 2.73
  38  0.497  0.792  0.711-  12 2.04  16 2.04   6 2.49   5 2.68   8 2.78
  39  0.715  0.498  0.719-  14 2.03  16 2.03   8 2.50   4 2.60
 
  LATTYP: Found a triclinic cell.
 ALAT       =    11.2260420022
 B/A-ratio  =     0.7060291808
 C/A-ratio  =     0.9892546466
 COS(alpha) =     0.0000241427
 COS(beta)  =     0.4946283043
 COS(gamma) =     0.7061631458
  
  Lattice vectors:
  
 A1 = (  -7.9487527839,   7.9266718512,   0.0960290563)
 A2 = (  -0.0007360203,   7.9259131820,   0.0005941604)
 A3 = (  -7.8525933984,   0.0001275855,  -7.8528339950)
 Subroutine PRICEL returns:
 Original cell was already a primitive cell.
 

Analysis of symmetry for initial positions (statically):

 Routine SETGRP: Setting up the symmetry group for a 
 triclinic supercell.


 Subroutine GETGRP returns: Found  1 space group operations
 (whereof  1 operations were pure point group operations)
 out of a pool of  2 trial point group operations.


The static configuration has the point symmetry C_1 .

Analysis of symmetry for dynamics (positions and initial velocities):

 Subroutine DYNSYM returns: Found  1 space group operations
 (whereof  1 operations were pure point group operations)
 out of a pool of  1 trial space group operations
 (whereof  1 operations were pure point group operations)
 and found also     1 'primitive' translations


The dynamic configuration has the point symmetry C_1 .

Analysis of magnetic symmetry:

 Subroutine MAGSYM returns: Found  1 space group operations
 (whereof  1 operations were pure point group operations)
 out of a pool of  1 trial space group operations
 (whereof  1 operations were pure point group operations)
 and found also     1 'primitive' translations


The magnetic configuration has the point symmetry C_1 .
 
 
 KPOINTS: KPOINTS File, automatically generated by

Automatic generation of k-mesh.
 
 Subroutine IBZKPT returns following result:
 ===========================================
 
 Found      1 irreducible k-points:
 
 Following reciprocal coordinates:
            Coordinates               Weight
  0.000000  0.000000  0.000000      1.000000
 
 Following cartesian coordinates:
            Coordinates               Weight
  0.000000  0.000000  0.000000      1.000000
 


--------------------------------------------------------------------------------------------------------




 Dimension of arrays:
   k-Points           NKPTS =      1   number of bands    NBANDS=    213
   number of dos      NEDOS =    301   number of ions     NIONS =     39
   non local maximal  LDIM  =      8   non local SUM 2l+1 LMDIM =     32
   total plane-waves  NPLWV = 110592
   max r-space proj   IRMAX =      1   max aug-charges    IRDMAX=  11741
   dimension x,y,z NGX =    48 NGY =   48 NGZ =   48
   dimension x,y,z NGXF=    96 NGYF=   96 NGZF=   96
   support grid    NGXF=    96 NGYF=   96 NGZF=   96
   ions per type =               8   8  23
 NGX,Y,Z   is equivalent  to a cutoff of  10.04, 10.07, 10.04 a.u.
 NGXF,Y,Z  is equivalent  to a cutoff of  20.08, 20.14, 20.08 a.u.


 I would recommend the setting:
   dimension x,y,z NGX =    48 NGY =   47 NGZ =   48
 SYSTEM =  bulk perovskite relaxation              
 POSCAR =  endpoint 1                              

 Startparameter for this run:
   NWRITE =      2    write-flag & timer
   PREC   = normal    medium, high low
   ISTART =      0    job   : 0-new  1-cont  2-samecut
   ICHARG =      2    charge: 1-file 2-atom 10-const
   ISPIN  =      2    spin polarized calculation?
   LNONCOLLINEAR =      F non collinear calculations
   LSORBIT =      F    spin-orbit coupling
   INIWAV =      1    electr: 0-lowe 1-rand  2-diag
   LASPH  =      F    aspherical Exc in radial PAW
   METAGGA=      F    non-selfconsistent MetaGGA calc.

 Electronic Relaxation 1
   ENCUT  =  600.0 eV  44.10 Ry    6.64 a.u.  15.88 15.83 15.88*2*pi/ulx,y,z
   ENINI  =  600.0     initial cutoff
   ENAUG  =  605.4 eV  augmentation charge cutoff
   NELM   =     60;   NELMIN=  2; NELMDL=  0     # of ELM steps 
   EDIFF  = 0.1E-03   stopping-criterion for ELM
   LREAL  =      F    real-space projection
   LCOMPAT=      F    compatible to vasp.4.4
   LREAL_COMPAT= F    compatible to vasp.4.5.1-3
   GGA_COMPAT  = T    GGA compatible to vasp.4.4-vasp.4.6
   LMAXPAW     = -100 max onsite density
   LMAXMIX     =    2 max onsite mixed and CHGCAR
   VOSKOWN=      1    Vosko Wilk Nusair interpolation
   ROPT   =    0.00000   0.00000   0.00000
 Ionic relaxation
   EDIFFG = 0.1E-02   stopping-criterion for IOM
   NSW    =    191    number of steps for IOM
   NBLOCK =      1;   KBLOCK =    191    inner block; outer block 
   IBRION =      2    ionic relax: 0-MD 1-quasi-New 2-CG
   NFREE  =      1    steps in history (QN), initial steepest desc. (CG)
   ISIF   =      2    stress and relaxation
   IWAVPR =     11    prediction:  0-non 1-charg 2-wave 3-comb
   ISYM   =      2    0-nonsym 1-usesym 2-fastsym
   LCORR  =      T    Harris-Foulkes like correction to forces

   POTIM  =   0.50    time-step for ionic-motion
   TEIN   =    0.0    initial temperature
   TEBEG  =    0.0;   TEEND  =   0.0 temperature during run
   SMASS  =  -3.00    Nose mass-parameter (am)
   estimated Nose-frequenzy (Omega)   =  0.10E-29 period in steps =****** mass=  -0.144E-26a.u.
   NPACO  =    256;   APACO  = 16.0  distance and # of slots for P.C.
   PSTRESS=    0.0 pullay stress

  Mass of Ions in am
   POMASS = 138.90 47.88 16.00
  Ionic Valenz
   ZVAL   =  11.00 12.00  6.00
  Atomic Wigner-Seitz radii
   RWIGS  =  -1.00 -1.00 -1.00
   NELECT =     322.0000    total number of electrons
   NUPDOWN=      -1.0000    fix difference up-down

 DOS related values:
   EMIN   =  10.00;   EMAX   =-10.00  energy-range for DOS
   ISMEAR =     0;   SIGMA  =   0.05  broadening in eV -4-tet -1-fermi 0-gaus

 Electronic relaxation 2 (details)
   IALGO  =     38    algorithm
   LDIAG  =      T    sub-space diagonalisation
   IMIX   =      4    mixing-type and parameters
     AMIX     =   0.40;   BMIX     =  1.00
     AMIX_MAG =   1.60;   BMIX_MAG =  1.00
     AMIN     =   0.10
     WC   =   100.;   INIMIX=   1;  MIXPRE=   1

 Intra band minimization:
   WEIMIN = 0.0010     energy-eigenvalue tresh-hold
   EBREAK =  0.12E-06  absolut break condition
   DEPER  =   0.30     relativ break condition  

   TIME   =   0.10     timestep for ELM

  volume/ion in A,a.u.               =      12.84        86.63
  Fermi-wavevector in a.u.,eV,Ry     =   1.413147 27.170636  1.996985

 Second variation
   LSECVAR=     F    do a second variation
 
 Write flags
   LWAVE  =      F    write WAVECAR
   LCHARG =      F    write CHGCAR
   LVTOT  =      F    write LOCPOT, local potential
   LELF   =      F    write electronic localiz. function (ELF)
   LORBIT =      0    0 simple, 1 ext, 2 COOP (PROOUT)


 Dipole corrections
   IDIPOL =      0    1-x, 2-y, 3-z
   LDIPOL =      F    correct potential



--------------------------------------------------------------------------------------------------------


 conjugate gradient relaxation of ions
 charge density will be updated during run
 spin polarized calculation
 Variant of blocked Davidson
 Davidson routine will perform the subspace rotation
 performe sub-space diagonalisation
    after iterative eigenvector-optimisation
 modified Broyden-mixing scheme, WC =      100.0
 initial mixing is a Kerker type mixing with AMIX =  0.4000 and BMIX =      1.0000
 Hartree-type preconditioning will be used
 using additional bands           52
 reciprocal scheme for non local part
 use partial core corrections
 calculate Harris-corrections to forces 
   (improved forces if not selfconsistent)
 use gradient corrections 
 use of overlap-Matrix (Vanderbilt PP)
 Gauss-broadening in eV      SIGMA  =   0.05


--------------------------------------------------------------------------------------------------------


  energy-cutoff  :      600.00
  volume of cell :      500.63
      direct lattice vectors                 reciprocal lattice vectors
     7.948016764 -0.000758669 -0.095434896     0.125835691  0.000011572  0.001510726
    -0.000736020  7.925913182  0.000594160     0.000011925  0.126168429 -0.000009874
    -0.095423365  0.000631084  7.948268891     0.001510909 -0.000009293  0.125831699

  length of vectors
     7.948589741  7.925913238  7.948841700     0.125844760  0.126168430  0.125840770


 
 k-points in units of 2pi/SCALE and weight: KPOINTS File, automatically generated by
   0.00000000  0.00000000  0.00000000       1.000
 
 k-points in reciprocal lattice and weights: KPOINTS File, automatically generated by
   0.00000000  0.00000000  0.00000000       1.000
 
 position of ions in fractional coordinates (direct lattice) 
   0.02551103  0.00349191  0.99170556
   0.02361197  0.99671424  0.48032523
   0.98330846  0.50508816  0.02812487
   0.97954670  0.50223598  0.53356607
   0.51543409  0.99993994  0.97635373
   0.52446393  0.99935888  0.47831923
   0.48289571  0.49984021  0.02949159
   0.46869194  0.49958586  0.51857464
   0.25108404  0.25082300  0.25490946
   0.25052052  0.24967931  0.75541358
   0.25082967  0.74903549  0.25438265
   0.24940641  0.74967950  0.75501988
   0.75498849  0.24857516  0.25726195
   0.75308289  0.24699011  0.75194944
   0.75047691  0.75034300  0.25342946
   0.74787551  0.74928236  0.75491062
   0.28544949  0.21451433  0.00691590
   0.99703911  0.21527429  0.21526417
   0.27276792  0.99994564  0.29460872
   0.21214374  0.28590557  0.50368971
   0.99808903  0.29222141  0.79505361
   0.20339622  0.00026269  0.73165532
   0.29113588  0.78353447  0.00590482
   0.99838756  0.78406002  0.21372833
   0.22995326  0.49935145  0.22042146
   0.20674264  0.71425235  0.50327153
   0.99999454  0.70992271  0.79344239
   0.29486670  0.49971748  0.77903114
   0.50419819  0.28360348  0.28688516
   0.71044603  0.00295210  0.22270947
   0.78676133  0.21890879  0.50521594
   0.50072504  0.20770617  0.72345491
   0.78016806  0.00202487  0.79790434
   0.70385597  0.71640516  0.00383730
   0.50158539  0.71765841  0.29894970
   0.78910943  0.49784830  0.27519568
   0.79259135  0.78486300  0.50486069
   0.49738830  0.79151139  0.71079592
   0.71543295  0.49771559  0.71927798
 
 position of ions in cartesian coordinates  (Angst):
   0.10812762  0.02828308  7.87990988
   0.14110052  7.90015578  3.81609286
   7.81229660  4.00255668  0.13000219
   7.73416925  3.98027236  4.14774209
   4.00277583  7.92566227  7.71172569
   4.12206975  7.92073565  3.75235148
   3.83488110  3.96134239  0.18861896
   3.67531958  3.95964586  4.07733796
   1.97111123  1.98797167  2.00227579
   1.91887345  1.97922318  5.98047023
   1.96877309  5.93676054  1.99840881
   1.90968802  5.94218193  5.97774437
   5.97592941  1.96977473  1.97288261
   5.91358011  1.95752535  5.90497270
   5.94006769  5.94674402  1.94314961
   5.87153948  5.93865596  5.92930437
   2.26793949  1.70000976  0.02785505
   7.90378385  1.70562478  1.61595306
   2.13911550  7.92546131  2.31619190
   1.63784780  2.26621969  3.98338524
   7.85674657  2.31586605  6.22422100
   1.54677935  0.00238948  5.79598224
   2.31281272  6.21000903  0.01961410
   7.91422928  6.21376911  1.60395510
   1.80627149  3.95778087  1.73032013
   1.59464440  5.66126288  3.98083138
   7.87173794  5.62652779  6.21148088
   2.26889989  3.96098532  6.16410530
   3.97979140  2.24761512  2.23229076
   5.62538306  0.02299963  1.70235519
   6.20482174  1.73477401  3.94063772
   3.91058361  1.64633774  5.70255089
   6.12464860  0.01596058  6.26750417
   5.59336556  5.67763353 -0.03624689
   3.95755411  5.68790634  2.32869029
   6.24522846  3.94547742  2.11231646
   6.25077612  6.22047328  3.93759398
   3.88484144  6.27352174  5.60259915
   5.61727085  3.94476167  5.64903324
 


--------------------------------------------------------------------------------------------------------


 k-point  1 :  0.00000.00000.0000  plane waves:  16703

 maximum and minimum number of plane-waves per node :  16703 16703

 maximum number of plane-waves:  16703
 maximal index in each direction: 
   IXMAX= 15   IYMAX= 15   IZMAX= 15
   IXMIN=-15   IYMIN=-15   IZMIN=-15

 WARNING: wrap around error must be expected set NGX to  62
 WARNING: wrap around error must be expected set NGY to  62
 WARNING: wrap around error must be expected set NGZ to  62

 parallel 3dFFT wavefunction:
    minimum data exchange during FFTs selected (reduces bandwidth)
 parallel 3dFFT charge:
    minimum data exchange during FFTs selected (reduces bandwidth)

 For storing wavefunctions  113.85 MBYTES are necessary
 For predicting wavefunctions  261.48 MBYTES are necessary
Broyden mixing: mesh for mixing (old mesh)
   NGX = 31   NGY = 31   NGZ = 31
  (NGX  = 96   NGY  = 96   NGZ  = 96)
 gives a total of  29791 points
 initial charge density was supplied:
 charge density of overlapping atoms calculated
 number of electron  322.0000000 magnetization   39.0000000
 keeping initial charge density in first step


--------------------------------------------------------------------------------------------------------


 Maximum index for augmentation-charges        11224 (set IRDMAX)


--------------------------------------------------------------------------------------------------------


 First call to EWALD:  gamma=   0.223
 Maximum number of real-space cells 3x 3x 3
 Maximum number of reciprocal cells 3x 3x 3

    FEWALD:  VPU time    0.10: CPU time    0.02


----------------------------------------- Iteration    1(   1)  ---------------------------------------


    POTLOK:  VPU time   21.41: CPU time   21.40
    SETDIJ:  VPU time    1.47: CPU time    1.47
    EDDAV :  VPU time  480.57: CPU time  130.82
    DOS   :  VPU time    0.00: CPU time    0.00
    ------------------------------------------
      LOOP:  VPU time  503.58: CPU time  153.72

 eigenvalue-minimisations  :   932
 total energy-change (2. order) : 0.6206796E+04  (-0.1230391E+05)
 number of electron  322.0000000 magnetization   39.0000000
 augmentation part   322.0000000 magnetization   39.0000000

 Free energy of the ion-electron system (eV)
  ---------------------------------------------------
  alpha Z        PSCENC =      1623.33552680
  Ewald energy   TEWEN  =    -23711.09064139
  -1/2 Hartree   DENC   =     -6628.24098263
  -V(xc)+E(xc)   XCENC  =      1391.92058026
  PAW double counting   =     18383.30314216   -18275.12797945
  entropy T*S    EENTRO =        -0.00062975
  eigenvalues    EBANDS =      3818.71963144
  atomic energy  EATOM  =     29603.97703338
  ---------------------------------------------------
  free energy    TOTEN  =      6206.79568083 eV

  energy without entropy =     6206.79631058  energy(sigma->0) =     6206.79599570


--------------------------------------------------------------------------------------------------------




----------------------------------------- Iteration    1(   2)  ---------------------------------------


    EDDAV :  VPU time  453.11: CPU time  123.47
    DOS   :  VPU time    0.00: CPU time    0.00
    ------------------------------------------
      LOOP:  VPU time  453.24: CPU time  123.50

 eigenvalue-minimisations  :   868
 total energy-change (2. order) :-0.4007684E+04  (-0.3658849E+04)
 number of electron  322.0000000 magnetization   39.0000000
 augmentation part   322.0000000 magnetization   39.0000000

 Free energy of the ion-electron system (eV)
  ---------------------------------------------------
  alpha Z        PSCENC =      1623.33552680
  Ewald energy   TEWEN  =    -23711.09064139
  -1/2 Hartree   DENC   =     -6628.24098263
  -V(xc)+E(xc)   XCENC  =      1391.92058026
  PAW double counting   =     18383.30314216   -18275.12797945
  entropy T*S    EENTRO =        -0.03169941
  eigenvalues    EBANDS =      -188.93306049
  atomic energy  EATOM  =     29603.97703338
  ---------------------------------------------------
  free energy    TOTEN  =      2199.11191924 eV

  energy without entropy =     2199.14361865  energy(sigma->0) =     2199.12776894


--------------------------------------------------------------------------------------------------------




----------------------------------------- Iteration    1(   3)  ---------------------------------------


    EDDAV :  VPU time  499.39: CPU time  135.85
    DOS   :  VPU time    0.00: CPU time    0.00
    ------------------------------------------
      LOOP:  VPU time  499.52: CPU time  135.88

 eigenvalue-minimisations  :   980
 total energy-change (2. order) :-0.1662523E+04  (-0.1465837E+04)
 number of electron  322.0000000 magnetization   39.0000000
 augmentation part   322.0000000 magnetization   39.0000000

 Free energy of the ion-electron system (eV)
  ---------------------------------------------------
  alpha Z        PSCENC =      1623.33552680
  Ewald energy   TEWEN  =    -23711.09064139
  -1/2 Hartree   DENC   =     -6628.24098263
  -V(xc)+E(xc)   XCENC  =      1391.92058026
  PAW double counting   =     18383.30314216   -18275.12797945
  entropy T*S    EENTRO =        -0.06246407
  eigenvalues    EBANDS =     -1851.42518271
  atomic energy  EATOM  =     29603.97703338
  ---------------------------------------------------
  free energy    TOTEN  =       536.58903236 eV

  energy without entropy =      536.65149643  energy(sigma->0) =      536.62026440


--------------------------------------------------------------------------------------------------------




----------------------------------------- Iteration    1(   4)  ---------------------------------------


    EDDAV :  VPU time  639.86: CPU time  173.55
    DOS   :  VPU time    0.00: CPU time    0.00
    ------------------------------------------
      LOOP:  VPU time  639.99: CPU time  173.59

 eigenvalue-minimisations  :  1321
 total energy-change (2. order) :-0.7618981E+03  (-0.7043653E+03)
 number of electron  322.0000000 magnetization   39.0000000
 augmentation part   322.0000000 magnetization   39.0000000

 Free energy of the ion-electron system (eV)
  ---------------------------------------------------
  alpha Z        PSCENC =      1623.33552680
  Ewald energy   TEWEN  =    -23711.09064139
  -1/2 Hartree   DENC   =     -6628.24098263
  -V(xc)+E(xc)   XCENC  =      1391.92058026
  PAW double counting   =     18383.30314216   -18275.12797945
  entropy T*S    EENTRO =        -0.05279650
  eigenvalues    EBANDS =     -2613.33290448
  atomic energy  EATOM  =     29603.97703338
  ---------------------------------------------------
  free energy    TOTEN  =      -225.30902185 eV

  energy without entropy =     -225.25622535  energy(sigma->0) =     -225.28262360


--------------------------------------------------------------------------------------------------------




----------------------------------------- Iteration    1(   5)  ---------------------------------------


    EDDAV :  VPU time  752.70: CPU time  204.13
    DOS   :  VPU time    0.00: CPU time    0.00
    CHARGE:  VPU time    5.61: CPU time    5.59
    MIXING:  VPU time    0.09: CPU time    0.09
    ------------------------------------------
      LOOP:  VPU time  758.52: CPU time  209.85

 eigenvalue-minimisations  :  1592
 total energy-change (2. order) :-0.1559632E+03  (-0.1531115E+03)
 number of electron  322.0000011 magnetization   18.7284231
 augmentation part    41.2592937 magnetization   16.8867939

 Broyden mixing:
  rms(total) = 0.59418E+01    rms(broyden)= 0.59415E+01
  rms(prec ) = 0.84450E+01
  weight for this iteration     100.00

 Free energy of the ion-electron system (eV)
  ---------------------------------------------------
  alpha Z        PSCENC =      1623.33552680
  Ewald energy   TEWEN  =    -23711.09064139
  -1/2 Hartree   DENC   =     -6628.24098263
  -V(xc)+E(xc)   XCENC  =      1391.92058026
  PAW double counting   =     18383.30314216   -18275.12797945
  entropy T*S    EENTRO =        -0.06619322
  eigenvalues    EBANDS =     -2769.28271787
  atomic energy  EATOM  =     29603.97703338
  ---------------------------------------------------
  free energy    TOTEN  =      -381.27223196 eV

  energy without entropy =     -381.20603873  energy(sigma->0) =     -381.23913535


--------------------------------------------------------------------------------------------------------




----------------------------------------- Iteration    1(   6)  ---------------------------------------


    POTLOK:  VPU time   22.05: CPU time   22.05
    SETDIJ:  VPU time    1.44: CPU time    1.44
    EDDAV :  VPU time  668.68: CPU time  182.38
    DOS   :  VPU time    0.00: CPU time    0.00
    CHARGE:  VPU time    5.38: CPU time    5.37
    MIXING:  VPU time    0.11: CPU time    0.11
    ------------------------------------------
      LOOP:  VPU time  697.77: CPU time  211.38

 eigenvalue-minimisations  :  1388
 total energy-change (2. order) : 0.4398430E+02  (-0.7534983E+02)
 number of electron  322.0000007 magnetization   11.1103388
 augmentation part    37.1962521 magnetization    9.1950916

 Broyden mixing:
  rms(total) = 0.24947E+01    rms(broyden)= 0.24937E+01
  rms(prec ) = 0.34490E+01
  weight for this iteration     100.00

 eigenvalues of (default mixing * dielectric matrix)
  average eigenvalue GAMMA=   0.7488
  0.7488

 Free energy of the ion-electron system (eV)
  ---------------------------------------------------
  alpha Z        PSCENC =      1623.33552680
  Ewald energy   TEWEN  =    -23711.09064139
  -1/2 Hartree   DENC   =     -6584.20101304
  -V(xc)+E(xc)   XCENC  =      1402.55996852
  PAW double counting   =     18795.47333657   -18759.83428667
  entropy T*S    EENTRO =        -0.01082526
  eigenvalues    EBANDS =     -2707.49703480
  atomic energy  EATOM  =     29603.97703338
  ---------------------------------------------------
  free energy    TOTEN  =      -337.28793588 eV

  energy without entropy =     -337.27711062  energy(sigma->0) =     -337.28252325


--------------------------------------------------------------------------------------------------------




----------------------------------------- Iteration    1(   7)  ---------------------------------------


    POTLOK:  VPU time   21.08: CPU time   21.08
    SETDIJ:  VPU time    1.42: CPU time    1.42
    EDDAV :  VPU time  714.17: CPU time  193.94
    DOS   :  VPU time    0.00: CPU time    0.00
    CHARGE:  VPU time    5.26: CPU time    5.25
    MIXING:  VPU time    0.15: CPU time    0.12
    ------------------------------------------
      LOOP:  VPU time  742.21: CPU time  221.84

 eigenvalue-minimisations  :  1542
 total energy-change (2. order) :-0.2435943E+01  (-0.1304423E+02)
 number of electron  322.0000008 magnetization    7.5208387
 augmentation part    33.7917557 magnetization    5.4621345

 Broyden mixing:
  rms(total) = 0.11482E+01    rms(broyden)= 0.11482E+01
  rms(prec ) = 0.16018E+01
  weight for this iteration     100.00

 eigenvalues of (default mixing * dielectric matrix)
  average eigenvalue GAMMA=   0.8081
  0.8081  0.8081

 Free energy of the ion-electron system (eV)
  ---------------------------------------------------
  alpha Z        PSCENC =      1623.33552680
  Ewald energy   TEWEN  =    -23711.09064139
  -1/2 Hartree   DENC   =     -6655.22357462
  -V(xc)+E(xc)   XCENC  =      1399.61448459
  PAW double counting   =     19098.02892050   -19065.80131744
  entropy T*S    EENTRO =        -0.03138915
  eigenvalues    EBANDS =     -2632.53292131
  atomic energy  EATOM  =     29603.97703338
  ---------------------------------------------------
  free energy    TOTEN  =      -339.72387865 eV

  energy without entropy =     -339.69248951  energy(sigma->0) =     -339.70818408


--------------------------------------------------------------------------------------------------------




----------------------------------------- Iteration    1(   8)  ---------------------------------------


    POTLOK:  VPU time   21.30: CPU time   21.28
    SETDIJ:  VPU time    1.42: CPU time    1.43
    EDDAV :  VPU time  752.05: CPU time  204.35
    DOS   :  VPU time    0.00: CPU time    0.00
    CHARGE:  VPU time    5.59: CPU time    5.58
    MIXING:  VPU time    0.20: CPU time    0.12
    ------------------------------------------
      LOOP:  VPU time  780.69: CPU time  232.80

 eigenvalue-minimisations  :  1632
 total energy-change (2. order) :-0.2849011E+01  (-0.2423749E+01)
 number of electron  322.0000009 magnetization    5.1755138
 augmentation part    32.4390282 magnetization    3.7895240

 Broyden mixing:
  rms(total) = 0.13460E+01    rms(broyden)= 0.13460E+01
  rms(prec ) = 0.23571E+01
  weight for this iteration     100.00

 eigenvalues of (default mixing * dielectric matrix)
  average eigenvalue GAMMA=   0.6945
  0.8746  0.8746  0.3343

 Free energy of the ion-electron system (eV)
  ---------------------------------------------------
  alpha Z        PSCENC =      1623.33552680
  Ewald energy   TEWEN  =    -23711.09064139
  -1/2 Hartree   DENC   =     -6669.50054267
  -V(xc)+E(xc)   XCENC  =      1399.88992450
  PAW double counting   =     19248.43328434   -19206.59237215
  entropy T*S    EENTRO =        -0.01666509
  eigenvalues    EBANDS =     -2631.00843768
  atomic energy  EATOM  =     29603.97703338
  ---------------------------------------------------
  free energy    TOTEN  =      -342.57288996 eV

  energy without entropy =     -342.55622487  energy(sigma->0) =     -342.56455741


--------------------------------------------------------------------------------------------------------




----------------------------------------- Iteration    1(   9)  ---------------------------------------


    POTLOK:  VPU time   21.25: CPU time   21.20
    SETDIJ:  VPU time    1.45: CPU time    1.45
    EDDAV :  VPU time  742.11: CPU time  201.71
    DOS   :  VPU time    0.00: CPU time    0.00
    CHARGE:  VPU time    5.33: CPU time    5.32
    MIXING:  VPU time    0.26: CPU time    0.13
    ------------------------------------------
      LOOP:  VPU time  770.53: CPU time  229.84

 eigenvalue-minimisations  :  1608
 total energy-change (2. order) : 0.5100956E+00  (-0.8530579E+00)
 number of electron  322.0000009 magnetization    4.2266758
 augmentation part    31.8370969 magnetization    2.4081736

 Broyden mixing:
  rms(total) = 0.79092E+00    rms(broyden)= 0.79088E+00
  rms(prec ) = 0.11660E+01
  weight for this iteration     100.00

 eigenvalues of (default mixing * dielectric matrix)
  average eigenvalue GAMMA=   0.7615
  1.1043  1.1043  0.6118  0.2256

 Free energy of the ion-electron system (eV)
  ---------------------------------------------------
  alpha Z        PSCENC =      1623.33552680
  Ewald energy   TEWEN  =    -23711.09064139
  -1/2 Hartree   DENC   =     -6675.22799663
  -V(xc)+E(xc)   XCENC  =      1399.96937075
  PAW double counting   =     19341.74162250   -19291.72750034
  entropy T*S    EENTRO =        -0.02839210
  eigenvalues    EBANDS =     -2633.01181728
  atomic energy  EATOM  =     29603.97703338
  ---------------------------------------------------
  free energy    TOTEN  =      -342.06279431 eV

  energy without entropy =     -342.03440221  energy(sigma->0) =     -342.04859826


--------------------------------------------------------------------------------------------------------




----------------------------------------- Iteration    1(  10)  ---------------------------------------


    POTLOK:  VPU time   21.13: CPU time   21.10
    SETDIJ:  VPU time    1.44: CPU time    1.44
    EDDAV :  VPU time  759.88: CPU time  206.55
    DOS   :  VPU time    0.00: CPU time    0.00
    CHARGE:  VPU time    5.32: CPU time    5.30
    MIXING:  VPU time    0.29: CPU time    0.15
    ------------------------------------------
      LOOP:  VPU time  788.18: CPU time  234.56

 eigenvalue-minimisations  :  1656
 total energy-change (2. order) :-0.9238176E-01  (-0.4525120E+00)
 number of electron  322.0000008 magnetization    3.5720034
 augmentation part    31.5471569 magnetization    1.8158901

 Broyden mixing:
  rms(total) = 0.73955E+00    rms(broyden)= 0.73953E+00
  rms(prec ) = 0.12472E+01
  weight for this iteration     100.00

 eigenvalues of (default mixing * dielectric matrix)
  average eigenvalue GAMMA=   0.7377
  1.2544  1.2544  0.6462  0.2128  0.3206

 Free energy of the ion-electron system (eV)
  ---------------------------------------------------
  alpha Z        PSCENC =      1623.33552680
  Ewald energy   TEWEN  =    -23711.09064139
  -1/2 Hartree   DENC   =     -6671.56495829
  -V(xc)+E(xc)   XCENC  =      1399.63963922
  PAW double counting   =     19397.01940756   -19338.43167312
  entropy T*S    EENTRO =        -0.03081847
  eigenvalues    EBANDS =     -2645.00869177
  atomic energy  EATOM  =     29603.97703338
  ---------------------------------------------------
  free energy    TOTEN  =      -342.15517607 eV

  energy without entropy =     -342.12435760  energy(sigma->0) =     -342.13976684


--------------------------------------------------------------------------------------------------------




----------------------------------------- Iteration    1(  11)  ---------------------------------------


    POTLOK:  VPU time   21.05: CPU time   21.03
    SETDIJ:  VPU time    1.43: CPU time    1.43
    EDDAV :  VPU time  738.12: CPU time  200.96
    DOS   :  VPU time    0.00: CPU time    0.00
    CHARGE:  VPU time    4.30: CPU time    4.30
    MIXING:  VPU time    0.32: CPU time    0.16
    ------------------------------------------
      LOOP:  VPU time  765.34: CPU time  227.91

 eigenvalue-minimisations  :  1600
 total energy-change (2. order) : 0.1790963E+00  (-0.2500721E+00)
 number of electron  322.0000010 magnetization    3.1148142
 augmentation part    31.4388370 magnetization    1.3337860

 Broyden mixing:
  rms(total) = 0.40034E+00    rms(broyden)= 0.40032E+00
  rms(prec ) = 0.59538E+00
  weight for this iteration     100.00

 eigenvalues of (default mixing * dielectric matrix)
  average eigenvalue GAMMA=   0.8013
  1.5065  1.5065  0.6661  0.6661  0.2312  0.2312

 Free energy of the ion-electron system (eV)
  ---------------------------------------------------
  alpha Z        PSCENC =      1623.33552680
  Ewald energy   TEWEN  =    -23711.09064139
  -1/2 Hartree   DENC   =     -6668.02496197
  -V(xc)+E(xc)   XCENC  =      1399.38415261
  PAW double counting   =     19457.74567775   -19388.64854572
  entropy T*S    EENTRO =        -0.03594588
  eigenvalues    EBANDS =     -2658.61837531
  atomic energy  EATOM  =     29603.97703338
  ---------------------------------------------------
  free energy    TOTEN  =      -341.97607972 eV

  energy without entropy =     -341.94013384  energy(sigma->0) =     -341.95810678


--------------------------------------------------------------------------------------------------------




----------------------------------------- Iteration    1(  12)  ---------------------------------------


    POTLOK:  VPU time   21.07: CPU time   21.07
    SETDIJ:  VPU time    1.44: CPU time    1.44
    EDDAV :  VPU time  753.47: CPU time  205.13
    DOS   :  VPU time    0.00: CPU time    0.00
    CHARGE:  VPU time    4.31: CPU time    4.30
    MIXING:  VPU time    0.34: CPU time    0.17
    ------------------------------------------
      LOOP:  VPU time  780.76: CPU time  232.15

 eigenvalue-minimisations  :  1624
 total energy-change (2. order) :-0.4452175E-01  (-0.1303655E+00)
 number of electron  322.0000010 magnetization    2.9045247
 augmentation part    31.3739355 magnetization    0.9776453

 Broyden mixing:
  rms(total) = 0.33502E+00    rms(broyden)= 0.33501E+00
  rms(prec ) = 0.58468E+00
  weight for this iteration     100.00

 eigenvalues of (default mixing * dielectric matrix)
  average eigenvalue GAMMA=   0.7878
  1.9053  1.3982  0.7031  0.7031  0.3542  0.2255  0.2255

 Free energy of the ion-electron system (eV)
  ---------------------------------------------------
  alpha Z        PSCENC =      1623.33552680
  Ewald energy   TEWEN  =    -23711.09064139
  -1/2 Hartree   DENC   =     -6674.11555601
  -V(xc)+E(xc)   XCENC  =      1399.60974073
  PAW double counting   =     19521.05377390   -19443.28131690
  entropy T*S    EENTRO =        -0.03245799
  eigenvalues    EBANDS =     -2661.47670399
  atomic energy  EATOM  =     29603.97703338
  ---------------------------------------------------
  free energy    TOTEN  =      -342.02060147 eV

  energy without entropy =     -341.98814348  energy(sigma->0) =     -342.00437248


--------------------------------------------------------------------------------------------------------




----------------------------------------- Iteration    1(  13)  ---------------------------------------


    POTLOK:  VPU time   21.03: CPU time   21.03
    SETDIJ:  VPU time    1.43: CPU time    1.43
    EDDAV :  VPU time  729.98: CPU time  198.74
    DOS   :  VPU time    0.00: CPU time    0.00
    CHARGE:  VPU time    4.30: CPU time    4.30
    MIXING:  VPU time    0.35: CPU time    0.18
    ------------------------------------------
      LOOP:  VPU time  757.21: CPU time  225.72

 eigenvalue-minimisations  :  1568
 total energy-change (2. order) : 0.5397343E-01  (-0.6398535E-01)
 number of electron  322.0000010 magnetization    3.1228825
 augmentation part    31.3003722 magnetization    1.0516885

 Broyden mixing:
  rms(total) = 0.15555E+00    rms(broyden)= 0.15554E+00
  rms(prec ) = 0.22919E+00
  weight for this iteration     100.00

 eigenvalues of (default mixing * dielectric matrix)
  average eigenvalue GAMMA=   0.7915
  1.9534  1.3397  0.8502  0.8502  0.6382  0.2441  0.2441  0.2118

 Free energy of the ion-electron system (eV)
  ---------------------------------------------------
  alpha Z        PSCENC =      1623.33552680
  Ewald energy   TEWEN  =    -23711.09064139
  -1/2 Hartree   DENC   =     -6682.58725609
  -V(xc)+E(xc)   XCENC  =      1400.00785022
  PAW double counting   =     19568.25079566   -19485.15582943
  entropy T*S    EENTRO =        -0.02255684
  eigenvalues    EBANDS =     -2658.68155035
  atomic energy  EATOM  =     29603.97703338
  ---------------------------------------------------
  free energy    TOTEN  =      -341.96662804 eV

  energy without entropy =     -341.94407120  energy(sigma->0) =     -341.95534962


--------------------------------------------------------------------------------------------------------




----------------------------------------- Iteration    1(  14)  ---------------------------------------


    POTLOK:  VPU time   21.08: CPU time   21.08
    SETDIJ:  VPU time    1.44: CPU time    1.44
    EDDAV :  VPU time  776.18: CPU time  211.16
    DOS   :  VPU time    0.00: CPU time    0.00
    CHARGE:  VPU time    4.36: CPU time    4.36
    MIXING:  VPU time    0.37: CPU time    0.20
    ------------------------------------------
      LOOP:  VPU time  803.55: CPU time  238.27

 eigenvalue-minimisations  :  1680
 total energy-change (2. order) :-0.1326502E-01  (-0.2298837E-01)
 number of electron  322.0000010 magnetization    3.4625788
 augmentation part    31.2124816 magnetization    1.2360848

 Broyden mixing:
  rms(total) = 0.12554E+00    rms(broyden)= 0.12554E+00
  rms(prec ) = 0.19028E+00
  weight for this iteration     100.00

 eigenvalues of (default mixing * dielectric matrix)
  average eigenvalue GAMMA=   0.7833
  1.7001  1.7001  0.9175  0.9175  0.6540  0.4452  0.2594  0.2279  0.2279

 Free energy of the ion-electron system (eV)
  ---------------------------------------------------
  alpha Z        PSCENC =      1623.33552680
  Ewald energy   TEWEN  =    -23711.09064139
  -1/2 Hartree   DENC   =     -6689.12945591
  -V(xc)+E(xc)   XCENC  =      1400.35851335
  PAW double counting   =     19587.43219250   -19503.00948259
  entropy T*S    EENTRO =        -0.01078306
  eigenvalues    EBANDS =     -2653.84279613
  atomic energy  EATOM  =     29603.97703338
  ---------------------------------------------------
  free energy    TOTEN  =      -341.97989306 eV

  energy without entropy =     -341.96911000  energy(sigma->0) =     -341.97450153


--------------------------------------------------------------------------------------------------------




----------------------------------------- Iteration    1(  15)  ---------------------------------------


    POTLOK:  VPU time   21.03: CPU time   21.04
    SETDIJ:  VPU time    1.43: CPU time    1.43
    EDDAV :  VPU time  762.93: CPU time  207.64
    DOS   :  VPU time    0.00: CPU time    0.00
    CHARGE:  VPU time    4.29: CPU time    4.28
    MIXING:  VPU time    0.38: CPU time    0.22
    ------------------------------------------
      LOOP:  VPU time  790.19: CPU time  234.64

 eigenvalue-minimisations  :  1648
 total energy-change (2. order) :-0.1209454E-02  (-0.9391289E-02)
 number of electron  322.0000010 magnetization    3.8298027
 augmentation part    31.1605856 magnetization    1.5410245

 Broyden mixing:
  rms(total) = 0.78145E-01    rms(broyden)= 0.78142E-01
  rms(prec ) = 0.10381E+00
  weight for this iteration     100.00

 eigenvalues of (default mixing * dielectric matrix)
  average eigenvalue GAMMA=   0.8362
  1.9805  1.9805  0.9995  0.9995  0.7447  0.6470  0.2994  0.2442  0.2442  0.2227

 Free energy of the ion-electron system (eV)
  ---------------------------------------------------
  alpha Z        PSCENC =      1623.33552680
  Ewald energy   TEWEN  =    -23711.09064139
  -1/2 Hartree   DENC   =     -6693.21533260
  -V(xc)+E(xc)   XCENC  =      1400.57982898
  PAW double counting   =     19596.60196414   -19511.56790397
  entropy T*S    EENTRO =        -0.00444034
  eigenvalues    EBANDS =     -2650.59713752
  atomic energy  EATOM  =     29603.97703338
  ---------------------------------------------------
  free energy    TOTEN  =      -341.98110251 eV

  energy without entropy =     -341.97666218  energy(sigma->0) =     -341.97888234


--------------------------------------------------------------------------------------------------------




----------------------------------------- Iteration    1(  16)  ---------------------------------------


    POTLOK:  VPU time   21.03: CPU time   21.04
    SETDIJ:  VPU time    1.35: CPU time    1.35
    EDDAV :  VPU time  758.18: CPU time  205.67
    DOS   :  VPU time    0.00: CPU time    0.00
    CHARGE:  VPU time    4.20: CPU time    4.20
    MIXING:  VPU time    0.40: CPU time    0.23
    ------------------------------------------
      LOOP:  VPU time  785.28: CPU time  232.52

 eigenvalue-minimisations  :  1648
 total energy-change (2. order) :-0.4642964E-02  (-0.5347402E-02)
 number of electron  322.0000010 magnetization    4.0116169
 augmentation part    31.1340361 magnetization    1.7043469

 Broyden mixing:
  rms(total) = 0.62384E-01    rms(broyden)= 0.62383E-01
  rms(prec ) = 0.99484E-01
  weight for this iteration     100.00

 eigenvalues of (default mixing * dielectric matrix)
  average eigenvalue GAMMA=   0.8281
  2.1199  2.1199  0.9897  0.9897  0.7943  0.6717  0.4161  0.2913  0.2433  0.2433
  0.2300

 Free energy of the ion-electron system (eV)
  ---------------------------------------------------
  alpha Z        PSCENC =      1623.33552680
  Ewald energy   TEWEN  =    -23711.09064139
  -1/2 Hartree   DENC   =     -6694.81539201
  -V(xc)+E(xc)   XCENC  =      1400.66023562
  PAW double counting   =     19601.19152214   -19515.42516768
  entropy T*S    EENTRO =        -0.00248417
  eigenvalues    EBANDS =     -2649.81637816
  atomic energy  EATOM  =     29603.97703338
  ---------------------------------------------------
  free energy    TOTEN  =      -341.98574548 eV

  energy without entropy =     -341.98326130  energy(sigma->0) =     -341.98450339


--------------------------------------------------------------------------------------------------------




----------------------------------------- Iteration    1(  17)  ---------------------------------------


    POTLOK:  VPU time   21.06: CPU time   21.07
    SETDIJ:  VPU time    1.36: CPU time    1.36
    EDDAV :  VPU time  732.46: CPU time  198.71
    DOS   :  VPU time    0.00: CPU time    0.00
    CHARGE:  VPU time    4.19: CPU time    4.19
    MIXING:  VPU time    0.42: CPU time    0.25
    ------------------------------------------
      LOOP:  VPU time  759.61: CPU time  225.60

 eigenvalue-minimisations  :  1584
 total energy-change (2. order) : 0.1053978E-02  (-0.2345425E-02)
 number of electron  322.0000010 magnetization    3.9801186
 augmentation part    31.1304909 magnetization    1.6740005

 Broyden mixing:
  rms(total) = 0.26742E-01    rms(broyden)= 0.26740E-01
  rms(prec ) = 0.35212E-01
  weight for this iteration     100.00

 eigenvalues of (default mixing * dielectric matrix)
  average eigenvalue GAMMA=   0.8350
  2.3613  1.5813  1.3711  1.0054  1.0054  0.7281  0.6182  0.3654  0.2334  0.2334
  0.2584  0.2584

 Free energy of the ion-electron system (eV)
  ---------------------------------------------------
  alpha Z        PSCENC =      1623.33552680
  Ewald energy   TEWEN  =    -23711.09064139
  -1/2 Hartree   DENC   =     -6695.91104250
  -V(xc)+E(xc)   XCENC  =      1400.70751974
  PAW double counting   =     19606.35495661   -19519.77411359
  entropy T*S    EENTRO =        -0.00181415
  eigenvalues    EBANDS =     -2649.58211640
  atomic energy  EATOM  =     29603.97703338
  ---------------------------------------------------
  free energy    TOTEN  =      -341.98469150 eV

  energy without entropy =     -341.98287735  energy(sigma->0) =     -341.98378443


--------------------------------------------------------------------------------------------------------




----------------------------------------- Iteration    1(  18)  ---------------------------------------


    POTLOK:  VPU time   21.04: CPU time   21.04
    SETDIJ:  VPU time    1.36: CPU time    1.36
    EDDAV :  VPU time  767.80: CPU time  208.19
    DOS   :  VPU time    0.00: CPU time    0.00
    CHARGE:  VPU time    4.20: CPU time    4.19
    MIXING:  VPU time    0.44: CPU time    0.27
    ------------------------------------------
      LOOP:  VPU time  794.95: CPU time  235.08

 eigenvalue-minimisations  :  1672
 total energy-change (2. order) :-0.3722279E-03  (-0.8881443E-03)
 number of electron  322.0000010 magnetization    3.9689868
 augmentation part    31.1321949 magnetization    1.6629386

 Broyden mixing:
  rms(total) = 0.15806E-01    rms(broyden)= 0.15804E-01
  rms(prec ) = 0.20684E-01
  weight for this iteration     100.00

 eigenvalues of (default mixing * dielectric matrix)
  average eigenvalue GAMMA=   0.8529
  2.3698  1.5638  1.5638  1.1134  1.1134  0.7260  0.7260  0.5723  0.3575  0.2328
  0.2343  0.2571  0.2571

 Free energy of the ion-electron system (eV)
  ---------------------------------------------------
  alpha Z        PSCENC =      1623.33552680
  Ewald energy   TEWEN  =    -23711.09064139
  -1/2 Hartree   DENC   =     -6696.96298868
  -V(xc)+E(xc)   XCENC  =      1400.74762115
  PAW double counting   =     19613.37343298   -19525.88783655
  entropy T*S    EENTRO =        -0.00211291
  eigenvalues    EBANDS =     -2649.47509851
  atomic energy  EATOM  =     29603.97703338
  ---------------------------------------------------
  free energy    TOTEN  =      -341.98506373 eV

  energy without entropy =     -341.98295082  energy(sigma->0) =     -341.98400727


--------------------------------------------------------------------------------------------------------




----------------------------------------- Iteration    1(  19)  ---------------------------------------


    POTLOK:  VPU time   21.13: CPU time   21.14
    SETDIJ:  VPU time    1.36: CPU time    1.36
    EDDAV :  VPU time  738.61: CPU time  200.38
    DOS   :  VPU time    0.00: CPU time    0.00
    CHARGE:  VPU time    4.20: CPU time    4.20
    MIXING:  VPU time    0.45: CPU time    0.29
    ------------------------------------------
      LOOP:  VPU time  765.87: CPU time  227.40

 eigenvalue-minimisations  :  1600
 total energy-change (2. order) :-0.4578561E-04  (-0.3224063E-03)
 number of electron  322.0000010 magnetization    3.9757230
 augmentation part    31.1266948 magnetization    1.6672496

 Broyden mixing:
  rms(total) = 0.12331E-01    rms(broyden)= 0.12331E-01
  rms(prec ) = 0.19294E-01
  weight for this iteration     100.00

 eigenvalues of (default mixing * dielectric matrix)
  average eigenvalue GAMMA=   0.8497
  2.4175  1.7472  1.7472  1.0581  1.0581  0.7635  0.7635  0.5733  0.4401  0.3427
  0.2306  0.2391  0.2578  0.2578

 Free energy of the ion-electron system (eV)
  ---------------------------------------------------
  alpha Z        PSCENC =      1623.33552680
  Ewald energy   TEWEN  =    -23711.09064139
  -1/2 Hartree   DENC   =     -6696.95964185
  -V(xc)+E(xc)   XCENC  =      1400.74418798
  PAW double counting   =     19612.81977554   -19525.44339288
  entropy T*S    EENTRO =        -0.00230354
  eigenvalues    EBANDS =     -2649.36565356
  atomic energy  EATOM  =     29603.97703338
  ---------------------------------------------------
  free energy    TOTEN  =      -341.98510951 eV

  energy without entropy =     -341.98280597  energy(sigma->0) =     -341.98395774


--------------------------------------------------------------------------------------------------------




----------------------------------------- Iteration    1(  20)  ---------------------------------------


    POTLOK:  VPU time   21.05: CPU time   21.06
    SETDIJ:  VPU time    1.36: CPU time    1.36
    EDDAV :  VPU time  548.66: CPU time  149.49
    DOS   :  VPU time    0.00: CPU time    0.00
    ------------------------------------------
      LOOP:  VPU time  571.20: CPU time  171.94

 eigenvalue-minimisations  :  1128
 total energy-change (2. order) : 0.6407314E-04  (-0.9957107E-04)
 number of electron  322.0000010 magnetization    3.9757230
 augmentation part    31.1266948 magnetization    1.6672496

 Free energy of the ion-electron system (eV)
  ---------------------------------------------------
  alpha Z        PSCENC =      1623.33552680
  Ewald energy   TEWEN  =    -23711.09064139
  -1/2 Hartree   DENC   =     -6696.99665453
  -V(xc)+E(xc)   XCENC  =      1400.74682743
  PAW double counting   =     19612.49732495   -19525.17889488
  entropy T*S    EENTRO =        -0.00228514
  eigenvalues    EBANDS =     -2649.27328205
  atomic energy  EATOM  =     29603.97703338
  ---------------------------------------------------
  free energy    TOTEN  =      -341.98504544 eV

  energy without entropy =     -341.98276030  energy(sigma->0) =     -341.98390287


--------------------------------------------------------------------------------------------------------




 average (electrostatic) potential at core
  the test charge radii are     1.1480  1.0397  0.7215
  (the norm of the test charge is              1.0000)
       1 -95.5732       2 -95.6699       3 -95.5351       4 -95.7645       5 -95.5597
       6 -95.6342       7 -95.6479       8 -95.6718       9 -49.3002      10 -49.3794
      11 -49.3077      12 -49.4258      13 -49.3161      14 -49.3756      15 -49.4107
      16 -49.4598      17 -68.2492      18 -68.3953      19 -68.3850      20 -68.3278
      21 -68.3358      22 -68.3830      23 -68.3664      24 -68.2997      25 -68.3996
      26 -68.3273      27 -68.2898      28 -68.3892      29 -68.2787      30 -68.4017
      31 -68.7108      32 -68.3192      33 -68.4222      34 -68.2604      35 -68.2984
      36 -68.4147      37 -68.3265      38 -68.2776      39 -68.3596
 
 
 
 E-fermi :   8.8998     XC(G=0): -11.4449     alpha+bet :-16.2655
   add alpha+bet to get absolut eigen values

 spin component 1

 k-point   1 :       0.0000    0.0000    0.0000
  band No.  band energies     occupation 
      1     -49.3018      1.00000
      2     -49.1697      1.00000
      3     -49.1619      1.00000
      4     -49.1434      1.00000
      5     -49.1221      1.00000
      6     -48.9610      1.00000
      7     -48.9314      1.00000
      8     -48.9261      1.00000
      9     -25.7571      1.00000
     10     -25.7496      1.00000
     11     -25.7244      1.00000
     12     -25.6857      1.00000
     13     -25.6774      1.00000
     14     -25.6496      1.00000
     15     -25.6439      1.00000
     16     -25.6203      1.00000
     17     -25.5878      1.00000
     18     -25.5548      1.00000
     19     -25.5446      1.00000
     20     -25.5286      1.00000
     21     -25.5236      1.00000
     22     -25.5138      1.00000
     23     -25.5060      1.00000
     24     -25.4705      1.00000
     25     -25.4621      1.00000
     26     -25.4502      1.00000
     27     -25.4110      1.00000
     28     -25.3820      1.00000
     29     -25.3664      1.00000
     30     -25.3242      1.00000
     31     -25.3070      1.00000
     32     -25.2435      1.00000
     33     -24.2243      1.00000
     34     -24.1510      1.00000
     35     -24.1261      1.00000
     36     -24.0893      1.00000
     37     -24.0742      1.00000
     38     -24.0309      1.00000
     39     -23.9900      1.00000
     40     -23.9612      1.00000
     41     -11.7786      1.00000
     42     -11.7325      1.00000
     43     -11.6424      1.00000
     44     -11.0674      1.00000
     45     -11.0405      1.00000
     46     -10.9718      1.00000
     47     -10.9535      1.00000
     48     -10.9149      1.00000
     49     -10.8878      1.00000
     50     -10.8112      1.00000
     51     -10.8019      1.00000
     52     -10.7561      1.00000
     53     -10.6744      1.00000
     54     -10.5899      1.00000
     55     -10.5220      1.00000
     56     -10.4286      1.00000
     57     -10.3656      1.00000
     58     -10.3469      1.00000
     59     -10.3113      1.00000
     60     -10.1836      1.00000
     61     -10.1246      1.00000
     62     -10.0860      1.00000
     63     -10.0766      1.00000
     64      -8.1179      1.00000
     65      -8.0446      1.00000
     66      -8.0134      1.00000
     67      -7.9860      1.00000
     68      -7.8516      1.00000
     69      -7.8425      1.00000
     70      -7.8223      1.00000
     71      -7.7892      1.00000
     72      -7.7795      1.00000
     73      -7.7715      1.00000
     74      -7.7189      1.00000
     75      -7.6775      1.00000
     76      -7.6685      1.00000
     77      -7.6129      1.00000
     78      -7.5374      1.00000
     79      -7.4169      1.00000
     80      -7.2295      1.00000
     81      -7.1995      1.00000
     82      -7.1746      1.00000
     83      -7.1603      1.00000
     84      -6.9877      1.00000
     85      -6.9633      1.00000
     86      -6.8652      1.00000
     87      -6.8377      1.00000
     88       1.6618      1.00000
     89       1.6832      1.00000
     90       1.7437      1.00000
     91       1.7583      1.00000
     92       1.8094      1.00000
     93       1.8393      1.00000
     94       1.9833      1.00000
     95       2.0215      1.00000
     96       2.1335      1.00000
     97       2.2695      1.00000
     98       2.5079      1.00000
     99       2.5176      1.00000
    100       2.5313      1.00000
    101       2.6027      1.00000
    102       2.6546      1.00000
    103       2.8414      1.00000
    104       2.8538      1.00000
    105       2.8942      1.00000
    106       2.9126      1.00000
    107       2.9453      1.00000
    108       2.9912      1.00000
    109       3.0747      1.00000
    110       3.1179      1.00000
    111       3.1449      1.00000
    112       3.1811      1.00000
    113       3.1873      1.00000
    114       3.2138      1.00000
    115       3.2819      1.00000
    116       3.3133      1.00000
    117       3.3227      1.00000
    118       3.3617      1.00000
    119       3.4135      1.00000
    120       3.4939      1.00000
    121       3.5279      1.00000
    122       3.6070      1.00000
    123       3.6713      1.00000
    124       3.7262      1.00000
    125       3.7558      1.00000
    126       3.7892      1.00000
    127       3.8393      1.00000
    128       3.9124      1.00000
    129       4.0134      1.00000
    130       4.0351      1.00000
    131       4.0744      1.00000
    132       4.1759      1.00000
    133       4.2019      1.00000
    134       4.2520      1.00000
    135       4.2689      1.00000
    136       4.3719      1.00000
    137       4.4405      1.00000
    138       4.4816      1.00000
    139       4.6164      1.00000
    140       4.6531      1.00000
    141       4.7151      1.00000
    142       4.7872      1.00000
    143       4.8151      1.00000
    144       4.8467      1.00000
    145       4.8693      1.00000
    146       5.0025      1.00000
    147       5.0539      1.00000
    148       5.0986      1.00000
    149       5.1610      1.00000
    150       5.1692      1.00000
    151       5.2091      1.00000
    152       5.2858      1.00000
    153       5.3227      1.00000
    154       5.4384      1.00000
    155       5.4561      1.00000
    156       5.5015      1.00000
    157       8.0604      1.00000
    158       8.3556      1.00000
    159       8.4738      1.00000
    160       8.5627      1.00000
    161       8.5942      1.00000
    162       8.6288      1.00000
    163       8.8196      0.98833
    164       9.3810      0.00000
    165       9.4473      0.00000
    166       9.5586      0.00000
    167       9.6388      0.00000
    168       9.6945      0.00000
    169       9.7436      0.00000
    170       9.7585      0.00000
    171       9.8518      0.00000
    172       9.9167      0.00000
    173       9.9528      0.00000
    174      10.0457      0.00000
    175      10.0916      0.00000
    176      10.1479      0.00000
    177      10.1827      0.00000
    178      10.2059      0.00000
    179      10.2444      0.00000
    180      10.2960      0.00000
    181      10.3041      0.00000
    182      10.3965      0.00000
    183      10.4369      0.00000
    184      10.4422      0.00000
    185      10.4681      0.00000
    186      10.4749      0.00000
    187      10.4923      0.00000
    188      10.5070      0.00000
    189      10.5204      0.00000
    190      10.5416      0.00000
    191      10.5513      0.00000
    192      10.5819      0.00000
    193      10.5998      0.00000
    194      10.6095      0.00000
    195      10.6142      0.00000
    196      10.6279      0.00000
    197      10.6410      0.00000
    198      10.6649      0.00000
    199      10.6723      0.00000
    200      10.6894      0.00000
    201      10.7060      0.00000
    202      10.7083      0.00000
    203      10.7149      0.00000
    204      10.7206      0.00000
    205      10.7297      0.00000
    206      10.7376      0.00000
    207      10.7474      0.00000
    208      10.7616      0.00000
    209      10.7828      0.00000
    210      10.7970      0.00000
    211      10.8046      0.00000
    212      10.8103      0.00000
    213      10.8388      0.00000

 spin component 2

 k-point   1 :       0.0000    0.0000    0.0000
  band No.  band energies     occupation 
      1     -48.7139      1.00000
      2     -48.7124      1.00000
      3     -48.7028      1.00000
      4     -48.7027      1.00000
      5     -48.7003      1.00000
      6     -48.6335      1.00000
      7     -48.6247      1.00000
      8     -48.6053      1.00000
      9     -25.2362      1.00000
     10     -25.2225      1.00000
     11     -25.2118      1.00000
     12     -25.2048      1.00000
     13     -25.1906      1.00000
     14     -25.1863      1.00000
     15     -25.1763      1.00000
     16     -25.1706      1.00000
     17     -25.1664      1.00000
     18     -25.1605      1.00000
     19     -25.1359      1.00000
     20     -25.1218      1.00000
     21     -25.1204      1.00000
     22     -25.1114      1.00000
     23     -25.1042      1.00000
     24     -25.0992      1.00000
     25     -25.0916      1.00000
     26     -25.0720      1.00000
     27     -25.0659      1.00000
     28     -25.0586      1.00000
     29     -25.0354      1.00000
     30     -25.0129      1.00000
     31     -25.0034      1.00000
     32     -24.9153      1.00000
     33     -24.2121      1.00000
     34     -24.1426      1.00000
     35     -24.1163      1.00000
     36     -24.0828      1.00000
     37     -24.0672      1.00000
     38     -24.0221      1.00000
     39     -23.9816      1.00000
     40     -23.9566      1.00000
     41     -11.7769      1.00000
     42     -11.7299      1.00000
     43     -11.6397      1.00000
     44     -11.0708      1.00000
     45     -11.0466      1.00000
     46     -10.9725      1.00000
     47     -10.9536      1.00000
     48     -10.9135      1.00000
     49     -10.8890      1.00000
     50     -10.8121      1.00000
     51     -10.8056      1.00000
     52     -10.7601      1.00000
     53     -10.6819      1.00000
     54     -10.5985      1.00000
     55     -10.5359      1.00000
     56     -10.4371      1.00000
     57     -10.3791      1.00000
     58     -10.3624      1.00000
     59     -10.3182      1.00000
     60     -10.1924      1.00000
     61     -10.1336      1.00000
     62     -10.0953      1.00000
     63     -10.0868      1.00000
     64      -8.0958      1.00000
     65      -8.0196      1.00000
     66      -7.9918      1.00000
     67      -7.9623      1.00000
     68      -7.8259      1.00000
     69      -7.8160      1.00000
     70      -7.7994      1.00000
     71      -7.7667      1.00000
     72      -7.7588      1.00000
     73      -7.7505      1.00000
     74      -7.7023      1.00000
     75      -7.6597      1.00000
     76      -7.6510      1.00000
     77      -7.5935      1.00000
     78      -7.5185      1.00000
     79      -7.4015      1.00000
     80      -7.2202      1.00000
     81      -7.1862      1.00000
     82      -7.1647      1.00000
     83      -7.1499      1.00000
     84      -6.9758      1.00000
     85      -6.9508      1.00000
     86      -6.8536      1.00000
     87      -6.8267      1.00000
     88       1.7146      1.00000
     89       1.7325      1.00000
     90       1.7967      1.00000
     91       1.8100      1.00000
     92       1.8744      1.00000
     93       1.9139      1.00000
     94       2.0448      1.00000
     95       2.0774      1.00000
     96       2.1938      1.00000
     97       2.3300      1.00000
     98       2.5577      1.00000
     99       2.5791      1.00000
    100       2.6010      1.00000
    101       2.6632      1.00000
    102       2.7046      1.00000
    103       2.8623      1.00000
    104       2.8902      1.00000
    105       2.9163      1.00000
    106       2.9359      1.00000
    107       2.9692      1.00000
    108       3.0292      1.00000
    109       3.1175      1.00000
    110       3.1598      1.00000
    111       3.1653      1.00000
    112       3.2004      1.00000
    113       3.2346      1.00000
    114       3.2462      1.00000
    115       3.3281      1.00000
    116       3.3461      1.00000
    117       3.3666      1.00000
    118       3.4091      1.00000
    119       3.4511      1.00000
    120       3.5237      1.00000
    121       3.5528      1.00000
    122       3.6237      1.00000
    123       3.6790      1.00000
    124       3.7642      1.00000
    125       3.7885      1.00000
    126       3.8167      1.00000
    127       3.8618      1.00000
    128       3.9353      1.00000
    129       4.0612      1.00000
    130       4.0816      1.00000
    131       4.1017      1.00000
    132       4.1963      1.00000
    133       4.2194      1.00000
    134       4.2440      1.00000
    135       4.2919      1.00000
    136       4.3669      1.00000
    137       4.4371      1.00000
    138       4.4749      1.00000
    139       4.6109      1.00000
    140       4.6534      1.00000
    141       4.7103      1.00000
    142       4.7749      1.00000
    143       4.8055      1.00000
    144       4.8364      1.00000
    145       4.8585      1.00000
    146       4.9928      1.00000
    147       5.0465      1.00000
    148       5.0905      1.00000
    149       5.1496      1.00000
    150       5.1620      1.00000
    151       5.2001      1.00000
    152       5.2710      1.00000
    153       5.3131      1.00000
    154       5.4248      1.00000
    155       5.4416      1.00000
    156       5.4857      1.00000
    157       8.1581      1.00000
    158       8.6770      1.00000
    159       8.7846      0.99944
    160       8.9796      0.01197
    161       9.0225      0.00026
    162       9.0589      0.00000
    163       9.3695      0.00000
    164       9.6938      0.00000
    165       9.7913      0.00000
    166       9.9231      0.00000
    167       9.9570      0.00000
    168       9.9906      0.00000
    169      10.0218      0.00000
    170      10.1070      0.00000
    171      10.1766      0.00000
    172      10.1956      0.00000
    173      10.2398      0.00000
    174      10.2440      0.00000
    175      10.2970      0.00000
    176      10.3332      0.00000
    177      10.3626      0.00000
    178      10.3887      0.00000
    179      10.4117      0.00000
    180      10.4257      0.00000
    181      10.4363      0.00000
    182      10.4610      0.00000
    183      10.4632      0.00000
    184      10.4868      0.00000
    185      10.5007      0.00000
    186      10.5129      0.00000
    187      10.5296      0.00000
    188      10.5453      0.00000
    189      10.5674      0.00000
    190      10.5739      0.00000
    191      10.5791      0.00000
    192      10.6101      0.00000
    193      10.6215      0.00000
    194      10.6327      0.00000
    195      10.6505      0.00000
    196      10.6677      0.00000
    197      10.6788      0.00000
    198      10.6826      0.00000
    199      10.6969      0.00000
    200      10.7052      0.00000
    201      10.7127      0.00000
    202      10.7196      0.00000
    203      10.7244      0.00000
    204      10.7363      0.00000
    205      10.7415      0.00000
    206      10.7488      0.00000
    207      10.7661      0.00000
    208      10.7765      0.00000
    209      10.7918      0.00000
    210      10.7980      0.00000
    211      10.8076      0.00000
    212      10.8267      0.00000
    213      10.8413      0.00000


--------------------------------------------------------------------------------------------------------


 soft charge-density along one line, spin component           1
         0         1         2         3         4         5         6         7         8         9
 total charge-density along one line
 
 soft charge-density along one line, spin component           2
         0         1         2         3         4         5         6         7         8         9
 total charge-density along one line
 
 pseudopotential strength for first ion, spin component:           1
 52.413  -3.983  -0.009   0.000  -0.002  -0.001   0.000   0.000
 -3.983  -4.586   0.000   0.000   0.000  -0.001   0.000   0.000
 -0.009   0.000  18.685   0.000   0.000   0.839  -0.001   0.001
  0.000   0.000   0.000  18.685  -0.001  -0.001   0.837  -0.001
 -0.002   0.000   0.000  -0.001  18.686   0.001  -0.001   0.842
 -0.001  -0.001   0.839  -0.001   0.001   6.910   0.000   0.000
  0.000   0.000  -0.001   0.837  -0.001   0.000   6.910   0.000
  0.000   0.000   0.001  -0.001   0.842   0.000   0.000   6.911
  0.000   0.000  -0.002   0.000  -0.004  -0.001   0.000  -0.001
  0.000   0.000  -0.003  -0.003   0.000  -0.001  -0.001   0.000
  0.000   0.001   0.002   0.000   0.001   0.001   0.000   0.000
  0.000   0.001   0.000  -0.001   0.003   0.000   0.000   0.001
  0.000  -0.001   0.003   0.003   0.000   0.001   0.001   0.000
  0.000   0.000   0.000   0.000   0.000   0.000   0.000   0.000
  0.000   0.000   0.000   0.000   0.000   0.000   0.000   0.000
  0.000   0.000   0.000   0.000   0.000   0.000   0.000   0.000
  0.000   0.000   0.000   0.000   0.000   0.000   0.000   0.000
  0.000   0.000   0.000   0.000   0.000   0.000   0.000   0.000
  0.001   0.000  -0.002   0.000  -0.002   0.000   0.000   0.000
  0.000   0.000   0.001  -0.001   0.001   0.000   0.000   0.000
  0.000   0.000   0.005   0.001   0.001   0.000   0.000   0.000
 -0.001  -0.001   0.000  -0.001  -0.003   0.000   0.000   0.000
  0.001   0.000   0.001   0.000   0.004   0.000  -0.001   0.000
  0.002  -0.001   0.000  -0.003   0.003   0.000   0.000   0.000
[...]
  0.004  -0.006   0.001   0.001   2.030  -0.001  -0.001  -0.008  -0.011   0.000   0.013   0.051   0.005   0.006   0.000  -0.015
 -0.004   0.006  -0.013   0.000  -0.001   0.018   0.000   0.000   0.004   0.015  -0.002  -0.001   0.000  -0.007  -0.021   0.001
  0.002  -0.002   0.000  -0.022  -0.001   0.000   0.022   0.000   0.000   0.002   0.000  -0.002  -0.021   0.000  -0.003  -0.001
 -0.001   0.001  -0.001  -0.001  -0.008   0.000   0.000   0.017   0.004   0.000  -0.004  -0.019  -0.002  -0.004   0.000   0.005
  0.008  -0.013  -0.014   0.001  -0.011   0.004   0.000   0.004   0.160  -0.004   0.010   0.004  -0.001  -0.171   0.008  -0.002
 -0.002   0.003  -0.039  -0.006   0.000   0.015   0.002   0.000  -0.004   0.199   0.004   0.001   0.000   0.008  -0.249  -0.005
 -0.027   0.039   0.006   0.001   0.013  -0.002   0.000  -0.004   0.010   0.004   0.120  -0.020  -0.009  -0.002  -0.005  -0.149
 -0.003   0.003   0.001   0.007   0.051  -0.001  -0.002  -0.019   0.004   0.001  -0.020   0.164   0.023  -0.003   0.000   0.026
  0.008  -0.010   0.002   0.053   0.005   0.000  -0.021  -0.002  -0.001   0.000  -0.009   0.023   0.135  -0.001   0.000   0.010
  0.000   0.002   0.017   0.000   0.006  -0.007   0.000  -0.004  -0.171   0.008  -0.002  -0.003  -0.001   0.212  -0.014  -0.004
  0.003  -0.007   0.040   0.003   0.000  -0.021  -0.003   0.000   0.008  -0.249  -0.005   0.000   0.000  -0.014   0.353   0.007
  0.037  -0.061  -0.003  -0.002  -0.015   0.001  -0.001   0.005  -0.002  -0.005  -0.149   0.026   0.010  -0.004   0.007   0.201
  0.004  -0.009   0.000  -0.009  -0.052   0.000   0.003   0.027  -0.003   0.000   0.026  -0.211  -0.031   0.004  -0.002  -0.039
 -0.009   0.014  -0.001  -0.050  -0.004   0.000   0.026   0.003  -0.001   0.000   0.010  -0.031  -0.168   0.003   0.000  -0.014
 -0.010   0.015   0.008  -0.002  -0.003  -0.002   0.001   0.002   0.022  -0.018  -0.010  -0.002   0.003  -0.039   0.025   0.008
  0.002  -0.003   0.007   0.002  -0.003  -0.004  -0.001   0.001   0.000   0.014   0.002   0.003   0.000  -0.001   0.006   0.000
  0.002  -0.003  -0.041  -0.004   0.002   0.017   0.001  -0.001  -0.010   0.056   0.010   0.001  -0.005   0.027  -0.073  -0.009
 -0.004   0.007   0.000   0.016   0.017   0.000  -0.008  -0.007   0.002   0.000  -0.003   0.020   0.017  -0.001   0.000   0.006
  0.014  -0.020   0.001   0.018  -0.023  -0.001  -0.008   0.008  -0.008  -0.002   0.019  -0.048   0.000   0.007   0.002  -0.029
  0.091  -0.140  -0.001   0.017  -0.024   0.001  -0.006   0.010  -0.001  -0.004  -0.041  -0.010  -0.011   0.000   0.006   0.048
  0.013  -0.019  -0.001  -0.011   0.001   0.000   0.005   0.001  -0.007  -0.001   0.011  -0.029  -0.022   0.006   0.000  -0.017
 -0.006   0.009   0.006  -0.001  -0.002  -0.002   0.000   0.001   0.022  -0.015  -0.006  -0.001   0.002  -0.034   0.021   0.005
  0.001  -0.001   0.004   0.002  -0.002  -0.003   0.000   0.001   0.000   0.000   0.000   0.002   0.000  -0.001   0.011   0.000
  0.000   0.000  -0.029  -0.003   0.002   0.013   0.001  -0.001  -0.014   0.043   0.006   0.000  -0.003   0.025  -0.060  -0.007
 -0.004   0.006   0.000   0.011   0.012   0.000  -0.006  -0.005   0.001   0.000  -0.003   0.016   0.014   0.000   0.000   0.005
  0.012  -0.017   0.001   0.013  -0.017  -0.001  -0.006   0.007  -0.005  -0.001   0.016  -0.039  -0.001   0.004   0.001  -0.025
  0.074  -0.112  -0.001   0.012  -0.017   0.000  -0.005   0.008   0.000  -0.003  -0.030  -0.008  -0.009   0.000   0.005   0.037
  0.012  -0.018  -0.001  -0.007   0.001   0.000   0.004   0.000  -0.005   0.000   0.010  -0.023  -0.017   0.004   0.000  -0.014
 total augmentation occupancy for first ion, spin component:           2
 -0.003   0.003   0.000   0.000   0.000   0.000   0.000   0.000   0.000   0.000   0.000   0.001   0.000   0.000   0.000   0.000
  0.003  -0.003   0.000   0.000   0.000   0.000   0.000   0.000   0.000   0.000   0.001  -0.002   0.000   0.000   0.000   0.000
  0.000   0.000   0.000   0.000   0.000   0.000   0.000   0.000   0.000   0.000   0.000   0.000   0.000   0.000   0.000   0.000
  0.000   0.000   0.000   0.000   0.000   0.000   0.000   0.000   0.000   0.000   0.000  -0.001   0.000   0.000   0.000   0.000
  0.000   0.000   0.000   0.000   0.000   0.000   0.000   0.000   0.000   0.000   0.000  -0.001   0.000   0.000   0.000   0.000
  0.000   0.000   0.000   0.000   0.000   0.000   0.000   0.000   0.000   0.000   0.000   0.000   0.000   0.000   0.000   0.000
  0.000   0.000   0.000   0.000   0.000   0.000   0.000   0.000   0.000   0.000   0.000   0.001   0.000   0.000   0.000   0.000
  0.000   0.000   0.000   0.000   0.000   0.000   0.000   0.000   0.000   0.000   0.000   0.000   0.000   0.000   0.000   0.000
  0.000   0.000   0.000   0.000   0.000   0.000   0.000   0.000   0.006  -0.001  -0.001   0.000   0.000  -0.004   0.001   0.000
  0.000   0.000   0.000   0.000   0.000   0.000   0.000   0.000  -0.001   0.000   0.000   0.000   0.000   0.001   0.000   0.000
  0.000   0.001   0.000   0.000   0.000   0.000   0.000   0.000  -0.001   0.000   0.000  -0.001   0.001   0.000   0.000   0.000
  0.001  -0.002   0.000  -0.001  -0.001   0.000   0.001   0.000   0.000   0.000  -0.001   0.008  -0.002   0.000   0.000   0.001
  0.000   0.000   0.000   0.000   0.000   0.000   0.000   0.000   0.000   0.000   0.001  -0.002   0.001   0.000   0.000   0.000
  0.000   0.000   0.000   0.000   0.000   0.000   0.000   0.000  -0.004   0.001   0.000   0.000   0.000   0.003   0.000   0.000
  0.000   0.000   0.000   0.000   0.000   0.000   0.000   0.000   0.001   0.000   0.000   0.000   0.000   0.000   0.001   0.000
  0.000   0.000   0.000   0.000   0.000   0.000   0.000   0.000   0.000   0.000   0.000   0.001   0.000   0.000   0.000   0.000
 -0.001   0.001   0.000   0.000   0.000   0.000   0.000   0.000   0.000   0.000   0.001  -0.004   0.001   0.000   0.000   0.000
  0.000   0.000   0.000   0.000   0.000   0.000   0.000   0.000   0.000   0.000   0.000   0.001   0.000   0.000   0.000   0.000
  0.000   0.000   0.000   0.000   0.000   0.000   0.000   0.000  -0.003   0.001   0.000   0.000   0.000   0.002   0.000   0.000
  0.000   0.000  -0.001   0.000   0.001   0.001   0.000   0.000  -0.012   0.000  -0.001   0.000   0.002   0.006  -0.001   0.001
  0.000   0.000   0.000   0.000   0.000   0.000   0.000   0.000   0.002  -0.001   0.000   0.000   0.000  -0.002   0.001   0.000
  0.000   0.001   0.000   0.000   0.000   0.000   0.000   0.000   0.000   0.000   0.000  -0.002   0.000   0.000   0.000   0.000
  0.000   0.000   0.000  -0.001   0.000   0.000   0.000   0.000   0.000   0.000   0.000   0.003  -0.001   0.000   0.000   0.000
  0.000   0.001   0.000   0.000   0.000   0.000   0.000   0.000   0.000   0.000   0.000  -0.001   0.000   0.000   0.000   0.000
  0.000   0.000   0.000   0.000   0.000   0.000   0.000   0.000   0.000   0.000   0.000   0.001   0.000   0.000   0.000   0.000
  0.000   0.000   0.000   0.000   0.000   0.000   0.000   0.000  -0.001   0.000   0.000   0.000   0.000   0.001   0.000   0.000
  0.000   0.000   0.000   0.000   0.000   0.000   0.000   0.000  -0.005   0.000   0.000   0.000   0.001   0.003  -0.001   0.000
  0.000   0.000   0.000   0.000   0.000   0.000   0.000   0.000   0.001   0.000   0.000   0.000   0.000  -0.001   0.000   0.000
  0.000   0.000   0.000   0.000   0.000   0.000   0.000   0.000   0.000   0.000   0.000  -0.001   0.000   0.000   0.000   0.000
  0.000   0.000   0.000   0.000   0.000   0.000   0.000   0.000   0.000   0.000   0.000   0.001   0.000   0.000   0.000   0.000
  0.000   0.001   0.000   0.000   0.000   0.000   0.000   0.000   0.000   0.000   0.000  -0.001   0.000   0.000   0.000   0.000
  0.000   0.000   0.000   0.000   0.000   0.000   0.000   0.000   0.000   0.000   0.000   0.001   0.000   0.000   0.000   0.000


------------------------ aborting loop because EDIFF is reached ----------------------------------------




--------------------------------------------------------------------------------------------------------


    CHARGE:  VPU time    5.31: CPU time    5.31
    FORLOC:  VPU time    0.96: CPU time    0.96
    FORNL :  VPU time  110.31: CPU time  110.32
    STRESS:  VPU time  627.32: CPU time  159.90
    FORCOR:  VPU time   21.40: CPU time   21.41
    FORHAR:  VPU time    1.33: CPU time    1.33
    MIXING:  VPU time    0.15: CPU time    0.12
 d Force = 0.4254440E-04[ 0.302E-04, 0.549E-04]  d Energy = 0.8912223E-04-0.466E-04
 d Force = 0.1009698E+00[ 0.101E+00, 0.101E+00]  d Ewald  = 0.1009698E+00-0.775E-08


--------------------------------------------------------------------------------------------------------



  FREE ENERGIE OF THE ION-ELECTRON SYSTEM (eV)
  ---------------------------------------------------
  free  energy   TOTEN  =      -341.985570 eV

  energy  without entropy=     -341.983458  energy(sigma->0) =     -341.984514
 

  FORCE on cell =-STRESS in cart. coord.  units (eV/reduce length):
  Direction    X        Y        Z        XY       YZ       ZX
  --------------------------------------------------------------------------------------
  Alpha Z   1623.34   1623.34   1623.34
  Ewald    -7826.23  -7598.37  -8286.98     35.87    -51.36     28.81
  Hartree   2305.50   2443.42   1947.76     14.16    -26.26      4.52
  E(xc)    -1522.46  -1521.89  -1522.58      0.14     -0.10      0.13
  Local     -633.04  -1005.59    179.34    -49.89     77.47    -33.94
  n-local    119.05    118.09    108.78     -1.34      0.81     -1.92
  augment    140.12    140.95    141.60     -0.19      0.10     -0.01
  Kinetic   5792.16   5800.21   5807.92      1.77     -0.29      4.03
  -------------------------------------------------------------------------------------
  Total       -1.56      0.15     -0.83      0.51      0.37      1.62
  in kB       -4.98      0.49     -2.66      1.64      1.19      5.18
  external pressure =       -2.38 kB  Pullay stress =        0.00 kB


 VOLUME and BASIS-vectors are now :
 -----------------------------------------------------------------------------
  energy-cutoff  :      600.00
  volume of cell :      500.63
      direct lattice vectors                 reciprocal lattice vectors
     7.948016764 -0.000758669 -0.095434896     0.125835691  0.000011572  0.001510726
    -0.000736020  7.925913182  0.000594160     0.000011925  0.126168429 -0.000009874
    -0.095423365  0.000631084  7.948268891     0.001510909 -0.000009293  0.125831699

  length of vectors
     7.948589741  7.925913238  7.948841700     0.125844760  0.126168430  0.125840770


 FORCES acting on ions
    electron-ion (+dipol)            ewald-force                    non-local-force                 convergence-correction
 -----------------------------------------------------------------------------------------------
   0.907E+02 -.288E+02 -.981E+01   -.906E+02 0.293E+02 0.985E+01   -.101E+00 -.542E+00 -.272E-01   -.174E-01 -.142E-01 -.102E-01
   0.615E+02 -.276E+02 -.443E+02   -.600E+02 0.273E+02 0.444E+02   -.152E+01 0.344E+00 -.451E-01   -.124E-02 -.150E-01 0.500E-02
   0.545E+02 0.720E+02 0.470E+02   -.547E+02 -.721E+02 -.460E+02   0.240E+00 0.772E-01 -.999E+00   0.401E-02 0.212E-01 -.207E-01
   0.266E+01 0.244E+02 0.432E+02   -.318E+01 -.242E+02 -.427E+02   0.513E+00 -.203E+00 -.479E+00   0.109E-01 0.133E-01 0.334E-02
   -.415E+02 -.823E+02 -.534E+02   0.424E+02 0.830E+02 0.531E+02   -.862E+00 -.660E+00 0.364E+00   0.346E-02 -.182E-01 -.378E-02
   0.179E+02 -.296E+02 -.436E+02   -.180E+02 0.293E+02 0.421E+02   0.894E-01 0.260E+00 0.152E+01   -.230E-02 -.966E-02 0.129E-01
   -.126E+03 0.931E+02 0.590E+02   0.125E+03 -.931E+02 -.590E+02   0.720E+00 0.604E-01 -.787E-01   -.164E-01 0.190E-01 -.912E-02
   -.860E+02 0.261E+02 0.598E+01   0.852E+02 -.259E+02 -.581E+01   0.807E+00 -.148E+00 -.193E+00   0.162E-01 0.383E-02 0.239E-01
   -.829E+01 0.205E+01 0.150E+02   0.850E+01 -.193E+01 -.151E+02   -.199E+00 -.125E+00 0.178E+00   -.125E-01 0.150E-01 0.698E-02
   -.106E+02 -.600E+01 -.139E+02   0.108E+02 0.598E+01 0.140E+02   -.170E+00 0.323E-02 -.988E-01   0.676E-02 0.310E-01 -.202E-01
   -.330E+01 -.171E+01 0.161E+02   0.340E+01 0.166E+01 -.162E+02   -.899E-01 0.715E-01 0.425E-01   -.127E-02 -.386E-01 -.201E-01
   -.587E+01 0.161E+01 -.131E+02   0.590E+01 -.158E+01 0.132E+02   -.459E-01 -.119E-01 -.916E-01   0.125E-01 -.357E-01 -.103E-01
   0.415E+02 -.366E+02 0.212E+03   -.416E+02 0.368E+02 -.212E+03   0.117E+00 -.147E+00 0.235E+00   -.644E-02 -.514E-01 0.176E-01
   0.435E+02 -.385E+02 -.210E+03   -.435E+02 0.386E+02 0.210E+03   0.124E-01 -.560E-01 -.487E-01   0.265E-01 -.141E-01 0.509E-02
   0.598E+01 0.116E+02 0.168E+02   -.594E+01 -.117E+02 -.170E+02   -.194E-01 0.946E-01 0.192E+00   -.139E-01 0.163E-01 0.616E-02
   0.328E+01 0.929E+01 -.188E+02   -.336E+01 -.945E+01 0.189E+02   0.758E-01 0.159E+00 -.162E+00   0.116E-02 -.382E-03 0.122E-01
   -.505E+02 0.111E+02 0.294E+01   0.511E+02 -.110E+02 -.241E+01   -.593E+00 -.775E-01 -.509E+00   0.452E-02 0.115E-01 -.170E-01
   0.300E+02 0.574E+01 0.581E+02   -.296E+02 -.564E+01 -.586E+02   -.449E+00 -.743E-01 0.544E+00   -.423E-02 -.169E-01 -.148E-02
   -.416E+02 -.986E+01 -.856E+01   0.426E+02 0.998E+01 0.674E+01   -.103E+01 -.103E+00 0.185E+01   0.116E-02 -.100E-01 -.184E-01
   0.337E+02 -.169E+02 -.317E+01   -.346E+02 0.169E+02 0.255E+01   0.903E+00 -.872E-01 0.591E+00   0.526E-02 0.195E-03 0.247E-01
   0.237E+02 -.256E+02 -.633E+02   -.222E+02 0.261E+02 0.645E+02   -.142E+01 -.465E+00 -.122E+01   -.616E-02 -.169E-01 -.412E-02
   0.221E+02 -.807E+01 0.279E+02   -.211E+02 0.796E+01 -.287E+02   -.112E+01 0.125E+00 0.815E+00   0.262E-01 -.825E-02 0.412E-02
   -.360E+02 -.201E+02 -.112E+00   0.366E+02 0.201E+02 0.571E+00   -.534E+00 0.656E-01 -.458E+00   0.203E-02 -.880E-02 0.664E-03
   0.146E+02 -.206E+02 0.385E+02   -.148E+02 0.209E+02 -.387E+02   0.250E+00 -.245E+00 0.278E+00   0.230E-02 0.165E-01 0.592E-02
   0.352E+02 0.864E+01 0.233E+02   -.361E+02 -.852E+01 -.215E+02   0.977E+00 -.146E+00 -.184E+01   -.161E-01 0.284E-01 0.315E-02
   0.324E+02 0.227E+02 -.845E+00   -.328E+02 -.228E+02 0.166E+00   0.359E+00 0.181E+00 0.678E+00   -.909E-02 -.803E-04 0.607E-02
   0.120E+02 0.247E+02 -.418E+02   -.115E+02 -.242E+02 0.425E+02   -.497E+00 -.536E+00 -.630E+00   0.182E-01 0.138E-01 -.108E-01
   -.325E+02 0.118E+02 -.469E+02   0.315E+02 -.118E+02 0.483E+02   0.108E+01 -.209E-01 -.135E+01   -.602E-02 0.691E-02 -.160E-01
   -.379E+02 -.195E+02 0.108E+02   0.386E+02 0.196E+02 -.109E+02   -.775E+00 -.661E-01 0.577E-01   0.102E-01 0.160E-01 0.651E-02
   0.158E+02 -.282E+02 0.732E+02   -.147E+02 0.278E+02 -.753E+02   -.106E+01 0.470E+00 0.216E+01   -.182E-01 -.692E-02 -.589E-02
   -.230E+02 0.181E+02 -.901E+01   0.230E+02 -.178E+02 0.939E+01   -.149E-01 -.273E+00 -.386E+00   -.770E-02 0.157E-01 0.126E-01
   -.266E+02 0.768E+01 -.309E+01   0.261E+02 -.766E+01 0.237E+01   0.447E+00 -.472E-01 0.717E+00   -.259E-02 0.203E-01 -.232E-03
   -.307E+02 -.225E+02 -.454E+02   0.320E+02 0.214E+02 0.444E+02   -.131E+01 0.110E+01 0.946E+00   -.408E-02 -.104E-01 0.157E-01
   0.273E+02 0.415E+02 0.105E+02   -.276E+02 -.417E+02 -.111E+02   0.344E+00 0.160E+00 0.618E+00   -.578E-03 0.128E-01 -.818E-02
   -.209E+02 0.263E+02 -.236E+02   0.217E+02 -.265E+02 0.239E+02   -.814E+00 0.218E+00 -.278E+00   -.148E-02 -.135E-01 -.103E-01
   -.190E+00 0.232E+02 0.904E+00   -.139E+01 -.229E+02 0.143E+00   0.156E+01 -.318E+00 -.108E+01   0.852E-02 0.168E-01 0.245E-01
   -.245E+02 -.222E+02 -.107E+02   0.248E+02 0.224E+02 0.114E+02   -.263E+00 -.246E+00 -.731E+00   -.383E-02 -.547E-02 -.694E-02
   -.815E+01 -.245E+02 0.287E+02   0.754E+01 0.247E+02 -.296E+02   0.608E+00 -.202E+00 0.845E+00   -.122E-01 -.131E-01 0.678E-02
   0.474E+02 0.292E+02 -.267E+02   -.493E+02 -.292E+02 0.284E+02   0.184E+01 0.365E-01 -.177E+01   0.257E-02 0.766E-02 0.644E-02
 -----------------------------------------------------------------------------------------------
   0.196E+01 0.140E+01 -.163E+00   -.270E-12 0.213E-12 0.277E-12   -.196E+01 -.138E+01 0.148E+00   -.138E-02 -.214E-01 0.164E-01
 
 
 POSITION                                       TOTAL-FORCE (eV/Angst)
 -----------------------------------------------------------------------------------
      0.10945      0.02870      7.88007        -0.020853     -0.004352      0.001071
      0.14130      7.90043      3.81632        -0.018910      0.008866      0.002786
      7.81255      4.00137      0.13121         0.014101      0.001660     -0.004373
      7.73309      3.97987      4.14834        -0.003465     -0.004483      0.006425
      4.00353      0.00052      7.71058         0.019177     -0.007272      0.008211
      4.12239      7.92108      3.75195         0.015397      0.000708     -0.002303
      3.83606      3.96091      0.18825         0.002956      0.003452     -0.009425
      3.67351      3.95998      4.07625        -0.010537      0.002908      0.000192
      1.97156      1.98720      2.00202         0.000947      0.006084      0.007450
      1.91891      1.97823      5.98099        -0.005484      0.015032     -0.007924
      1.96877      5.93798      1.99880         0.004691     -0.015302     -0.005575
      1.90920      5.94334      5.97797        -0.002036     -0.013539      0.002260
      5.97600      1.97138      1.97264         0.000811     -0.019517      0.001439
      5.91241      1.95825      5.90478         0.004667     -0.004799      0.000822
      5.94058      5.94613      1.94313         0.002636      0.010642     -0.002889
      5.87129      5.93861      5.92908        -0.000595      0.003924      0.003094
      2.26797      1.69933      0.02808        -0.000522     -0.013769     -0.001275
      7.90386      1.70614      1.61608        -0.000009      0.009268     -0.003604
      2.13910      7.92520      2.31749        -0.003800      0.000515      0.009380
      1.63741      2.26653      3.98301        -0.002887      0.002409      0.001883
      7.85658      2.31686      6.22418        -0.005839      0.009003     -0.001080
      1.54524      0.00256      5.79557        -0.013626     -0.002399      0.002415
      2.31296      6.21008      0.01958        -0.000170      0.012369      0.000542
      7.91454      6.21266      1.60349         0.005070     -0.012316     -0.002734
      1.80764      3.95743      1.72998         0.016818      0.005057     -0.004270
      1.59483      5.66109      3.98102         0.000410     -0.000014      0.004096
      7.87073      5.62543      6.21239         0.001126     -0.009635      0.008074
      2.26925      3.96104      6.16488         0.006465      0.002448      0.007333
      3.97955      2.24673      2.23224         0.005356     -0.010488     -0.002799
      5.62670      0.02317      1.70235         0.013893      0.005145     -0.002262
      6.20516      1.73382      3.94054         0.000600      0.001362     -0.000357
      3.91058      1.64533      5.70230        -0.006051     -0.010973      0.000347
      6.12519      0.01685      6.26683         0.006928      0.007769     -0.004025
      5.59334      5.67737     -0.03631        -0.002586     -0.003830      0.003472
      3.95751      5.68893      2.32907         0.002906      0.012950      0.004999
      6.24462      3.94528      2.11160        -0.011529      0.003904     -0.005945
      6.25116      6.22063      3.93822         0.005782     -0.002398     -0.004107
      3.88514      6.27411      5.60234        -0.007978      0.010869     -0.001556
      5.61646      3.94438      5.64830        -0.013857     -0.001260     -0.009787
 -----------------------------------------------------------------------------------
    total drift:                                0.000969     -0.003325      0.001569


--------------------------------------------------------------------------------------------------------




--------------------------------------------------------------------------------------------------------


  
 reached required accuracy - stopping structural energy minimisation
     LOOP+:  VPU time 2392.51: CPU time  801.64
  
