 vasp.5.2.2 15Apr09 complex 
 executed on             LinuxIFC date 2011.11.10  10:51:29
 running on    6 nodes
 each image running on    2 nodes
 distr:  one band on    2 nodes,    1 groups


--------------------------------------------------------------------------------------------------------


 INCAR:
 POTCAR:   PAW_PBE Al 04Jan2001                   
 POTCAR:   PAW_PBE Al 04Jan2001                   
   VRHFIN =Al: s2p1                                                             
   LEXCH  = PE                                                                  
   EATOM  =    53.5387 eV,    3.9350 Ry                                         
                                                                                
   TITEL  = PAW_PBE Al 04Jan2001                                                
   LULTRA =        F    use ultrasoft PP ?                                      
   IUNSCR =        1    unscreen: 0-lin 1-nonlin 2-no                           
   RPACOR =    1.500    partial core radius                                     
   POMASS =   26.982; ZVAL   =    3.000    mass and valenz                      
   RCORE  =    1.900    outmost cutoff radius                                   
   RWIGS  =    2.650; RWIGS  =    1.402    wigner-seitz radius (au A)           
   ENMAX  =  240.300; ENMIN  =  180.225 eV                                      
   ICORE  =        2    local potential                                         
   LCOR   =        T    correct aug charges                                     
   LPAW   =        T    paw PP                                                  
   EAUG   =  291.052                                                            
   DEXC   =    -.041                                                            
   RMAX   =    2.974    core radius for proj-oper                               
   RAUG   =    1.300    factor for augmentation sphere                          
   RDEP   =    1.966    radius for radial grids                                 
   QCUT   =   -4.203; QGAM   =    8.405    optimization parameters              
                                                                                
   Description                                                                  
     l     E      TYP  RCUT    TYP  RCUT                                        
     0   .000     23  1.900                                                     
     0   .000     23  1.900                                                     
     1   .000     23  1.900                                                     
     1  1.000     23  1.900                                                     
     2   .000      7  1.900                                                     
  local pseudopotential read in
  partial core-charges read in
  atomic valenz-charges read in
  non local Contribution for L=           0  read in
    real space projection operators read in
  non local Contribution for L=           0  read in
    real space projection operators read in
  non local Contribution for L=           1  read in
    real space projection operators read in
  non local Contribution for L=           1  read in
    real space projection operators read in
    PAW grid and wavefunctions read in
 
   number of l-projection  operators is LMAX  =           4
   number of lm-projection operators is LMMAX =           8
 

 ----------------------------------------------------------------------------- 
|                                                                             |
|  ADVICE TO THIS USER RUNNING 'VASP/VAMP'   (HEAR YOUR MASTER'S VOICE ...):  |
|                                                                             |
|      You have a (more or less) 'large supercell' and for larger cells       |
|      it might be more efficient to use real space projection operators      |
|      So try LREAL= Auto  in the INCAR   file.                               |
|      Mind: If you want to do a very accurate calculations keep the          |
|      reciprocal projection scheme          (i.e. LREAL=.FALSE.)             |
|                                                                             |
 ----------------------------------------------------------------------------- 

 PAW_PBE Al 04Jan2001                   :
 energy of atom  1       EATOM=  -53.5387
 kinetic energy error for atom=    0.0006 (will be added to EATOM!!)
 
 
 POSCAR: POSCAR_01:FCC Al endpoint 1             
  positions in direct lattice
  No initial velocities read in
 exchange correlation table for  LEXCH =        8
   RHO(1)=    0.500       N(1)  =     2000
   RHO(2)=  100.500       N(2)  =     4000

 VTST: version 2.03d, (02/18/09)

 CHAIN: initializing optimizer
 
 OPT: Using VASP QUASI-newton optimizer
 CHAIN: Read ICHAIN            0
 CHAIN: Running the NEB
 NEB:          SPRING     -5.000000
 NEB:          LCLIMB      T
 NEB:     LTANGENTOLD      F
 NEB:           LDNEB      F
 NEB:        LDNEBORG      F
 NEB:          EFIRST      0.000000
 NEB:           ELAST      0.000000
 
 POSCAR: POSCAR_00:FCC Al endpoint 1             
  positions in direct lattice
  No initial velocities read in
 
 POSCAR: POSCAR_04:FCC Al endpoint 1             
  positions in direct lattice
  No initial velocities read in
 


--------------------------------------------------------------------------------------------------------


 ion  position               nearest neighbor table
   1  0.002  0.002  0.500-  16 2.82  17 2.82  24 2.82  25 2.82  20 2.82  21 2.82  26 2.82  27 2.82
                            15 2.83  13 2.83  11 2.83   9 2.83
   2  0.000  0.504  0.000-  14 2.81  26 2.82  27 2.82  22 2.82  23 2.82  12 2.82  10 2.83  24 2.85
                            25 2.85  18 2.85  19 2.85   8 2.92
   3  0.002  0.502  0.500-  24 2.75  25 2.75  26 2.76  27 2.76  18 2.82  19 2.82  15 2.82  22 2.82
                            23 2.82  13 2.82  11 2.82   9 2.83
   4  0.504  0.000  0.000-  14 2.81  20 2.82  21 2.82  30 2.82  31 2.82  10 2.82  12 2.83  16 2.85
                            17 2.85  28 2.85  29 2.85   8 2.92
   5  0.502  0.002  0.500-  16 2.75  17 2.75  20 2.76  21 2.76  28 2.82  29 2.82  15 2.82  30 2.82
                            31 2.82  11 2.82  13 2.82   9 2.83
   6  0.504  0.504  0.000-  14 2.74  12 2.76  10 2.76  22 2.82  23 2.82  30 2.82  31 2.82  28 2.85
                            29 2.85  18 2.85  19 2.85
   7  0.502  0.502  0.500-  18 2.81  19 2.81  28 2.81  29 2.81  15 2.82  22 2.82  23 2.82  30 2.82
                            31 2.82  13 2.82  11 2.82   9 2.82
   8  0.193  0.193  0.000-  16 2.62  17 2.62  24 2.62  25 2.62   2 2.92   4 2.92  18 3.23  19 3.23
                            28 3.23  29 3.23
   9  0.253  0.253  0.500-  16 2.80  17 2.80  24 2.80  25 2.80  18 2.82  19 2.82  28 2.82  29 2.82
                             7 2.82   5 2.83   3 2.83   1 2.83
  10  0.257  0.747  0.000-   6 2.76  18 2.80  19 2.80  30 2.80  31 2.80   4 2.82   2 2.83  16 2.89
                            17 2.89  26 2.89  27 2.89
  11  0.253  0.751  0.500-  16 2.78  17 2.78  18 2.80  19 2.80  26 2.80  27 2.80   7 2.82  30 2.82
                            31 2.82   5 2.82   3 2.82   1 2.83
  12  0.747  0.257  0.000-   6 2.76  28 2.80  29 2.80  22 2.80  23 2.80   2 2.82   4 2.83  24 2.89
                            25 2.89  20 2.89  21 2.89
  13  0.751  0.253  0.500-  24 2.78  25 2.78  28 2.80  29 2.80  20 2.80  21 2.80   7 2.82  22 2.82
                            23 2.82   3 2.82   5 2.82   1 2.83
  14  0.747  0.747  0.000-   6 2.74  22 2.80  23 2.80  30 2.80  31 2.80   4 2.81   2 2.81  26 2.89
                            27 2.89  20 2.89  21 2.89
  15  0.751  0.751  0.500-  20 2.80  21 2.80  26 2.80  27 2.80   7 2.82  22 2.82  23 2.82  30 2.82
                            31 2.82   5 2.82   3 2.82   1 2.83
  16  0.257  0.000  0.257-   8 2.62   5 2.75  11 2.78  30 2.79   9 2.80   1 2.82  28 2.82   4 2.85
                            26 2.88  10 2.89  24 2.91
  17  0.257  0.000  0.743-   8 2.62   5 2.75  11 2.78  31 2.79   9 2.80   1 2.82  29 2.82   4 2.85
                            27 2.88  10 2.89  25 2.91
  18  0.253  0.504  0.252-  26 2.79  11 2.80  10 2.80   7 2.81  30 2.81   3 2.82   9 2.82  24 2.82
                            28 2.84   6 2.85   2 2.85   8 3.23
  19  0.253  0.504  0.748-  27 2.79  11 2.80  10 2.80   7 2.81  31 2.81   3 2.82   9 2.82  25 2.82
                            29 2.84   6 2.85   2 2.85   8 3.23
  20  0.747  0.002  0.256-   5 2.76  28 2.79  15 2.80  30 2.80  13 2.80   4 2.82   1 2.82  24 2.88
                            26 2.88  14 2.89  12 2.89
  21  0.747  0.002  0.744-   5 2.76  29 2.79  15 2.80  31 2.80  13 2.80   4 2.82   1 2.82  25 2.88
                            27 2.88  14 2.89  12 2.89
  22  0.751  0.502  0.251-  24 2.79  26 2.80  14 2.80  12 2.80  28 2.81  30 2.82   7 2.82  15 2.82
                             6 2.82  13 2.82   3 2.82   2 2.82
  23  0.751  0.502  0.749-  25 2.79  27 2.80  14 2.80  12 2.80  29 2.81  31 2.82   7 2.82  15 2.82
                             6 2.82  13 2.82   3 2.82   2 2.82
  24  0.000  0.257  0.257-   8 2.62   3 2.75  13 2.78  22 2.79   9 2.80   1 2.82  18 2.82   2 2.85
                            20 2.88  12 2.89  16 2.91
  25  0.000  0.257  0.743-   8 2.62   3 2.75  13 2.78  23 2.79   9 2.80   1 2.82  19 2.82   2 2.85
                            21 2.88  12 2.89  17 2.91
  26  0.002  0.747  0.256-   3 2.76  18 2.79  15 2.80  22 2.80  11 2.80   2 2.82   1 2.82  16 2.88
                            20 2.88  14 2.89  10 2.89
  27  0.002  0.747  0.744-   3 2.76  19 2.79  15 2.80  23 2.80  11 2.80   2 2.82   1 2.82  17 2.88
                            21 2.88  14 2.89  10 2.89
  28  0.504  0.253  0.252-  20 2.79  13 2.80  12 2.80   7 2.81  22 2.81   5 2.82   9 2.82  16 2.82
                            18 2.84   6 2.85   4 2.85   8 3.23
  29  0.504  0.253  0.748-  21 2.79  13 2.80  12 2.80   7 2.81  23 2.81   5 2.82   9 2.82  17 2.82
                            19 2.84   6 2.85   4 2.85   8 3.23
  30  0.502  0.751  0.251-  16 2.79  20 2.80  14 2.80  10 2.80  18 2.81  22 2.82   7 2.82  15 2.82
                             6 2.82  11 2.82   5 2.82   4 2.82
  31  0.502  0.751  0.749-  17 2.79  21 2.80  14 2.80  10 2.80  19 2.81  23 2.82   7 2.82  15 2.82
                             6 2.82  11 2.82   5 2.82   4 2.82
 
  LATTYP: Found a simple cubic cell.
 ALAT       =     7.9894616391
  
  Lattice vectors:
  
 A1 = (   7.9894616391,   0.0000000000,   0.0000000000)
 A2 = (   0.0000000000,   7.9894616391,   0.0000000000)
 A3 = (   0.0000000000,   0.0000000000,   7.9894616391)
 Subroutine PRICEL returns:
 Original cell was already a primitive cell.
 

Analysis of symmetry for initial positions (statically):

 Routine SETGRP: Setting up the symmetry group for a 
 simple cubic supercell.


 Subroutine GETGRP returns: Found  4 space group operations
 (whereof  4 operations were pure point group operations)
 out of a pool of 48 trial point group operations.


The static configuration has the point symmetry C_2v.

Analysis of symmetry for dynamics (positions and initial velocities):

 Subroutine DYNSYM returns: Found  4 space group operations
 (whereof  4 operations were pure point group operations)
 out of a pool of  4 trial space group operations
 (whereof  4 operations were pure point group operations)
 and found also     1 'primitive' translations


The dynamic configuration has the point symmetry C_2v.
 
 
 KPOINTS: FCC test                                

Automatic generation of k-mesh.
 
 Subroutine IBZKPT returns following result:
 ===========================================
 
 Found      1 irreducible k-points:
 
 Following reciprocal coordinates:
            Coordinates               Weight
  0.000000  0.000000  0.000000      1.000000
 
 Following cartesian coordinates:
            Coordinates               Weight
  0.000000  0.000000  0.000000      1.000000
 


--------------------------------------------------------------------------------------------------------




 Dimension of arrays:
   k-points           NKPTS =      1   k-points in BZ     NKDIM =      1   number of bands    NBANDS=     62
   number of dos      NEDOS =    301   number of ions     NIONS =     31
   non local maximal  LDIM  =      4   non local SUM 2l+1 LMDIM =      8
   total plane-waves  NPLWV = 125000
   max r-space proj   IRMAX =      1   max aug-charges    IRDMAX=   9738
   dimension x,y,z NGX =    50 NGY =   50 NGZ =   50
   dimension x,y,z NGXF=   100 NGYF=  100 NGZF=  100
   support grid    NGXF=   100 NGYF=  100 NGZF=  100
   ions per type =              31
 NGX,Y,Z   is equivalent  to a cutoff of  10.40, 10.40, 10.40 a.u.
 NGXF,Y,Z  is equivalent  to a cutoff of  20.81, 20.81, 20.81 a.u.


 I would recommend the setting:
   dimension x,y,z NGX =    49 NGY =   49 NGZ =   49
 SYSTEM =  unknown system                          
 POSCAR =  POSCAR_01:FCC Al endpoint 1             

 Startparameter for this run:
   NWRITE =      2    write-flag & timer
   PREC   = accura    medium, high low
   ISTART =      0    job   : 0-new  1-cont  2-samecut
   ICHARG =      2    charge: 1-file 2-atom 10-const
   ISPIN  =      1    spin polarized calculation?
   LNONCOLLINEAR =      F non collinear calculations
   LSORBIT =      F    spin-orbit coupling
   INIWAV =      1    electr: 0-lowe 1-rand  2-diag
   LASPH  =      F    aspherical Exc in radial PAW
   METAGGA=      F    non-selfconsistent MetaGGA calc.

 Electronic Relaxation 1
   ENCUT  =  360.0 eV  26.46 Ry    5.14 a.u.  12.36 12.36 12.36*2*pi/ulx,y,z
   ENINI  =  360.0     initial cutoff
   ENAUG  =  291.1 eV  augmentation charge cutoff
   NELM   =     60;   NELMIN=  2; NELMDL= -5     # of ELM steps 
   EDIFF  = 0.1E-03   stopping-criterion for ELM
   LREAL  =      F    real-space projection
   LCOMPAT=      F    compatible to vasp.4.4
   LREAL_COMPAT= F    compatible to vasp.4.5.1-3
   GGA_COMPAT  = T    GGA compatible to vasp.4.4-vasp.4.6
   LMAXPAW     = -100 max onsite density
   LMAXMIX     =    2 max onsite mixed and CHGCAR
   VOSKOWN=      0    Vosko Wilk Nusair interpolation
   ROPT   =    0.00000
 Ionic relaxation
   EDIFFG = 0.1E-02   stopping-criterion for IOM
   NSW    =    191    number of steps for IOM
   NBLOCK =      1;   KBLOCK =    191    inner block; outer block 
   IBRION =      1    ionic relax: 0-MD 1-quasi-New 2-CG
   NFREE  =      0    steps in history (QN), initial steepest desc. (CG)
   ISIF   =      2    stress and relaxation
   IWAVPR =     11    prediction:  0-non 1-charg 2-wave 3-comb
   ISYM   =      2    0-nonsym 1-usesym 2-fastsym
   LCORR  =      T    Harris-Foulkes like correction to forces

   POTIM  = 0.5000    time-step for ionic-motion
   TEIN   =    0.0    initial temperature
   TEBEG  =    0.0;   TEEND  =   0.0 temperature during run
   SMASS  =  -3.00    Nose mass-parameter (am)
   estimated Nose-frequenzy (Omega)   =  0.10E-29 period in steps =****** mass=  -0.146E-26a.u.
   NPACO  =    256;   APACO  = 16.0  distance and # of slots for P.C.
   PSTRESS=    0.0 pullay stress

  Mass of Ions in am
   POMASS =  26.98
  Ionic Valenz
   ZVAL   =   3.00
  Atomic Wigner-Seitz radii
   RWIGS  =  -1.00
   NELECT =      93.0000    total number of electrons
   NUPDOWN=      -1.0000    fix difference up-down

 DOS related values:
   EMIN   =  10.00;   EMAX   =-10.00  energy-range for DOS
   EFERMI =   0.00
   ISMEAR =     1;   SIGMA  =   0.20  broadening in eV -4-tet -1-fermi 0-gaus

 Electronic relaxation 2 (details)
   IALGO  =     38    algorithm
   LDIAG  =      T    sub-space diagonalisation
   IMIX   =      4    mixing-type and parameters
     AMIX     =   0.40;   BMIX     =  1.00
     AMIX_MAG =   1.60;   BMIX_MAG =  1.00
     AMIN     =   0.10
     WC   =   100.;   INIMIX=   1;  MIXPRE=   1

 Intra band minimization:
   WEIMIN = 0.0010     energy-eigenvalue tresh-hold
   EBREAK =  0.40E-06  absolut break condition
   DEPER  =   0.30     relativ break condition  

   TIME   =   0.40     timestep for ELM

  volume/ion in A,a.u.               =      16.45       111.02
  Fermi-wavevector in a.u.,A,eV,Ry     =   0.928364  1.754354 11.726314  0.861860
  Thomas-Fermi vector in A             =   2.054533
 
 Write flags
   LWAVE  =      F    write WAVECAR
   LCHARG =      F    write CHGCAR
   LVTOT  =      F    write LOCPOT, local potential
   LELF   =      F    write electronic localiz. function (ELF)
   LORBIT =      0    0 simple, 1 ext, 2 COOP (PROOUT)


 Dipole corrections
   LMONO  =      F    monopole corrections only (constant potential shift)
   LDIPOL =      F    correct potential (dipole corrections)
   IDIPOL =      0    1-x, 2-y, 3-z, 4-all directions 
   EPSILON=  1.0000000 bulk dielectric constant

 Exchange correlation treatment:
   GGA     =    --    GGA type
   LEXCH   =     8    internal setting for exchange type
   VOSKOWN=      0    Vosko Wilk Nusair interpolation
   LHFCALC =     F    Hartree Fock is set to
   LHFONE  =     F    Hartree Fock one center treatment
   AEXX    =    0.0000 exact exchange contribution

 Linear response parameters
   LEPSILON=     F    determine dielectric tensor
   LRPA    =     F    only Hartree local field effects (RPA)
   LNABLA  =     F    use nabla operator in PAW spheres
   LVEL    =     F    velocity operator in full k-point grid
   LINTERFAST=   F  fast interpolation
   KINTER  =     0    interpolate to denser k-point grid
   CSHIFT  =0.1000    complex shift for real part using Kramers Kronig
   OMEGAMAX=  -1.0    maximum frequency

 Orbital magnetization related:
   ORBITALMAG=     F  switch on orbital magnetization
   LCHIMAG   =     F  perturbation theory with respect to B field



--------------------------------------------------------------------------------------------------------


 quasi-Newton-method for relaxation of ions
 charge density and potential will be updated during run
 non-spin polarized calculation
 Variant of blocked Davidson
 Davidson routine will perform the subspace rotation
 perform sub-space diagonalisation
    after iterative eigenvector-optimisation
 modified Broyden-mixing scheme, WC =      100.0
 initial mixing is a Kerker type mixing with AMIX =  0.4000 and BMIX =      1.0000
 Hartree-type preconditioning will be used
 using additional bands           15
 reciprocal scheme for non local part
 use partial core corrections
 calculate Harris-corrections to forces 
   (improved forces if not selfconsistent)
 use gradient corrections 
 use of overlap-Matrix (Vanderbilt PP)
 Methfessel and Paxton  Order N= 1 SIGMA  =   0.20


--------------------------------------------------------------------------------------------------------


  energy-cutoff  :      360.00
  volume of cell :      509.98
      direct lattice vectors                 reciprocal lattice vectors
     7.989461639  0.000000000  0.000000000     0.125164879  0.000000000  0.000000000
     0.000000000  7.989461639  0.000000000     0.000000000  0.125164879  0.000000000
     0.000000000  0.000000000  7.989461639     0.000000000  0.000000000  0.125164879

  length of vectors
     7.989461639  7.989461639  7.989461639     0.125164879  0.125164879  0.125164879


 
 k-points in units of 2pi/SCALE and weight: FCC test                                
   0.00000000  0.00000000  0.00000000       1.000
 
 k-points in reciprocal lattice and weights: FCC test                                
   0.00000000  0.00000000  0.00000000       1.000
 
 position of ions in fractional coordinates (direct lattice) 
   0.00180404  0.00180404  0.50000000
   0.00021658  0.50381568  0.00000000
   0.00180404  0.50222821  0.50000000
   0.50381568  0.00021658  0.00000000
   0.50222821  0.00180404  0.50000000
   0.50381568  0.50381568  0.00000000
   0.50222821  0.50222821  0.50000000
   0.19311528  0.19311528  0.00000000
   0.25265251  0.25265251  0.50000000
   0.25741484  0.74661742  0.00000000
   0.25265251  0.75137975  0.50000000
   0.74661742  0.25741484  0.00000000
   0.75137975  0.25265251  0.50000000
   0.74661742  0.74661742  0.00000000
   0.75137975  0.75137975  0.50000000
   0.25741484  0.00021658  0.25719826
   0.25741484  0.00021658  0.74280174
   0.25265251  0.50381568  0.25243594
   0.25265251  0.50381568  0.74756406
   0.74661742  0.00180404  0.25561079
   0.74661742  0.00180404  0.74438921
   0.75137975  0.50222821  0.25084847
   0.75137975  0.50222821  0.74915153
   0.00021658  0.25741484  0.25719826
   0.00021658  0.25741484  0.74280174
   0.00180404  0.74661742  0.25561079
   0.00180404  0.74661742  0.74438921
   0.50381568  0.25265251  0.25243594
   0.50381568  0.25265251  0.74756406
   0.50222821  0.75137975  0.25084847
   0.50222821  0.75137975  0.74915153
 
 position of ions in cartesian coordinates  (Angst):
   0.01441334  0.01441334  3.99473082
   0.00173032  4.02521607  0.00000000
   0.01441334  4.01253305  3.99473082
   4.02521607  0.00173032  0.00000000
   4.01253305  0.01441334  3.99473082
   4.02521607  4.02521607  0.00000000
   4.01253305  4.01253305  3.99473082
   1.54288715  1.54288715  0.00000000
   2.01855755  2.01855755  3.99473082
   2.05660596  5.96507125  0.00000000
   2.01855755  6.00311966  3.99473082
   5.96507125  2.05660596  0.00000000
   6.00311966  2.01855755  3.99473082
   5.96507125  5.96507125  0.00000000
   6.00311966  6.00311966  3.99473082
   2.05660596  0.00173032  2.05487564
   2.05660596  0.00173032  5.93458600
   2.01855755  4.02521607  2.01682722
   2.01855755  4.02521607  5.97263442
   5.96507125  0.01441334  2.04219262
   5.96507125  0.01441334  5.94726902
   6.00311966  4.01253305  2.00414421
   6.00311966  4.01253305  5.98531743
   0.00173032  2.05660596  2.05487564
   0.00173032  2.05660596  5.93458600
   0.01441334  5.96507125  2.04219262
   0.01441334  5.96507125  5.94726902
   4.02521607  2.01855755  2.01682722
   4.02521607  2.01855755  5.97263442
   4.01253305  6.00311966  2.00414421
   4.01253305  6.00311966  5.98531743
 


--------------------------------------------------------------------------------------------------------


 k-point  1 :  0.00000.00000.0000  plane waves:    7881

 maximum and minimum number of plane-waves per node :    3953   3928

 maximum number of plane-waves:    7881
 maximal index in each direction: 
   IXMAX= 12   IYMAX= 12   IZMAX= 12
   IXMIN=-12   IYMIN=-12   IZMIN=-12

 NGX is ok and might be reduce to  50
 NGY is ok and might be reduce to  50
 NGZ is ok and might be reduce to  50

 parallel 3D FFT for wavefunctions:
    minimum data exchange during FFTs selected (reduces bandwidth)
 parallel 3D FFT for charge:
    minimum data exchange during FFTs selected (reduces bandwidth)


 total amount of memory used by VASP on root node  90106. kBytes
========================================================================

   base      :    30000. kBytes
   nonl-proj :     2213. kBytes
   fftplans  :    18956. kBytes
   grid      :    34840. kBytes
   one-center:       49. kBytes
   wavefun   :     4048. kBytes
 
 Broyden mixing: mesh for mixing (old mesh)
   NGX = 25   NGY = 25   NGZ = 25
  (NGX  =100   NGY  =100   NGZ  =100)
  gives a total of  15625 points

 initial charge density was supplied:
 charge density of overlapping atoms calculated
 number of electron   93.0000000 magnetization 
 keeping initial charge density in first step


--------------------------------------------------------------------------------------------------------


 Maximum index for augmentation-charges         4648 (set IRDMAX)


--------------------------------------------------------------------------------------------------------


 First call to EWALD:  gamma=   0.222
 Maximum number of real-space cells 3x 3x 3
 Maximum number of reciprocal cells 3x 3x 3

    FEWALD:  cpu time    0.01: real time    0.02
   RESPFUN:  cpu time    0.00: real time    0.00


----------------------------------------- Iteration    1(   1)  ---------------------------------------


    POTLOK:  cpu time    1.17: real time    1.17
    SETDIJ:  cpu time    0.07: real time    0.07
     EDDAV:  cpu time    3.83: real time    3.84
       DOS:  cpu time    0.00: real time    0.00
    --------------------------------------------
      LOOP:  cpu time    5.08: real time    5.08

 eigenvalue-minimisations  :   124
 total energy-change (2. order) : 0.1066153E+03  (-0.2630489E+04)
 number of electron   93.0000000 magnetization 
 augmentation part    93.0000000 magnetization 

 Free energy of the ion-electron system (eV)
  ---------------------------------------------------
  alpha Z        PSCENC =        -6.32931246
  Ewald energy   TEWEN  =     -2249.28315560
  -1/2 Hartree   DENC   =       -22.94381478
  -exchange  EXHF       =         0.00000000
  -V(xc)+E(xc)   XCENC  =      -812.69968415
  PAW double counting   =      1102.18190231     -111.56847430
  entropy T*S    EENTRO =        -0.03196969
  eigenvalues    EBANDS =       547.60852012
  atomic energy  EATOM  =      1659.68123870
  ---------------------------------------------------
  free energy    TOTEN  =       106.61525015 eV

  energy without entropy =      106.64721984  energy(sigma->0) =      106.62590671


--------------------------------------------------------------------------------------------------------




----------------------------------------- Iteration    1(   2)  ---------------------------------------


     EDDAV:  cpu time    4.22: real time    4.22
       DOS:  cpu time    0.00: real time    0.00
    --------------------------------------------
      LOOP:  cpu time    4.22: real time    4.22

 eigenvalue-minimisations  :   144
 total energy-change (2. order) :-0.1925934E+03  (-0.1777127E+03)
 number of electron   93.0000000 magnetization 
 augmentation part    93.0000000 magnetization 

 Free energy of the ion-electron system (eV)
  ---------------------------------------------------
  alpha Z        PSCENC =        -6.32931246
  Ewald energy   TEWEN  =     -2249.28315560
  -1/2 Hartree   DENC   =       -22.94381478
  -exchange  EXHF       =         0.00000000
  -V(xc)+E(xc)   XCENC  =      -812.69968415
  PAW double counting   =      1102.18190231     -111.56847430
  entropy T*S    EENTRO =        -0.01276055
  eigenvalues    EBANDS =       354.99595919
  atomic energy  EATOM  =      1659.68123870
  ---------------------------------------------------
  free energy    TOTEN  =       -85.97810164 eV

  energy without entropy =      -85.96534109  energy(sigma->0) =      -85.97384813


--------------------------------------------------------------------------------------------------------




----------------------------------------- Iteration    1(   3)  ---------------------------------------


     EDDAV:  cpu time    4.72: real time    4.72
       DOS:  cpu time    0.00: real time    0.00
    --------------------------------------------
      LOOP:  cpu time    4.72: real time    4.72

 eigenvalue-minimisations  :   168
 total energy-change (2. order) :-0.1492924E+02  (-0.1428339E+02)
 number of electron   93.0000000 magnetization 
 augmentation part    93.0000000 magnetization 

 Free energy of the ion-electron system (eV)
  ---------------------------------------------------
  alpha Z        PSCENC =        -6.32931246
  Ewald energy   TEWEN  =     -2249.28315560
  -1/2 Hartree   DENC   =       -22.94381478
  -exchange  EXHF       =         0.00000000
  -V(xc)+E(xc)   XCENC  =      -812.69968415
  PAW double counting   =      1102.18190231     -111.56847430
  entropy T*S    EENTRO =        -0.04308296
  eigenvalues    EBANDS =       340.09704317
  atomic energy  EATOM  =      1659.68123870
  ---------------------------------------------------
  free energy    TOTEN  =      -100.90734007 eV

  energy without entropy =     -100.86425711  energy(sigma->0) =     -100.89297909


--------------------------------------------------------------------------------------------------------




----------------------------------------- Iteration    1(   4)  ---------------------------------------


     EDDAV:  cpu time    4.57: real time    4.57
       DOS:  cpu time    0.00: real time    0.00
    --------------------------------------------
      LOOP:  cpu time    4.57: real time    4.57

 eigenvalue-minimisations  :   160
 total energy-change (2. order) :-0.4298939E+00  (-0.4233938E+00)
 number of electron   93.0000000 magnetization 
 augmentation part    93.0000000 magnetization 

 Free energy of the ion-electron system (eV)
  ---------------------------------------------------
  alpha Z        PSCENC =        -6.32931246
  Ewald energy   TEWEN  =     -2249.28315560
  -1/2 Hartree   DENC   =       -22.94381478
  -exchange  EXHF       =         0.00000000
  -V(xc)+E(xc)   XCENC  =      -812.69968415
  PAW double counting   =      1102.18190231     -111.56847430
  entropy T*S    EENTRO =        -0.03652078
  eigenvalues    EBANDS =       339.66058708
  atomic energy  EATOM  =      1659.68123870
  ---------------------------------------------------
  free energy    TOTEN  =      -101.33723398 eV

  energy without entropy =     -101.30071320  energy(sigma->0) =     -101.32506039


--------------------------------------------------------------------------------------------------------




----------------------------------------- Iteration    1(   5)  ---------------------------------------


     EDDAV:  cpu time    4.93: real time    4.93
       DOS:  cpu time    0.00: real time    0.00
    CHARGE:  cpu time    0.51: real time    0.51
    MIXING:  cpu time    0.03: real time    0.03
    --------------------------------------------
      LOOP:  cpu time    5.47: real time    5.47

 eigenvalue-minimisations  :   176
 total energy-change (2. order) :-0.1070344E-01  (-0.1067207E-01)
 number of electron   93.0000000 magnetization 
 augmentation part    -0.9498718 magnetization 

 Broyden mixing:
  rms(total) = 0.68566E+00    rms(broyden)= 0.68565E+00
  rms(prec ) = 0.13802E+01
  weight for this iteration     100.00

 Free energy of the ion-electron system (eV)
  ---------------------------------------------------
  alpha Z        PSCENC =        -6.32931246
  Ewald energy   TEWEN  =     -2249.28315560
  -1/2 Hartree   DENC   =       -22.94381478
  -exchange  EXHF       =         0.00000000
  -V(xc)+E(xc)   XCENC  =      -812.69968415
  PAW double counting   =      1102.18190231     -111.56847430
  entropy T*S    EENTRO =        -0.03617965
  eigenvalues    EBANDS =       339.64954251
  atomic energy  EATOM  =      1659.68123870
  ---------------------------------------------------
  free energy    TOTEN  =      -101.34793742 eV

  energy without entropy =     -101.31175777  energy(sigma->0) =     -101.33587753


--------------------------------------------------------------------------------------------------------




----------------------------------------- Iteration    1(   6)  ---------------------------------------


    POTLOK:  cpu time    1.13: real time    1.13
    SETDIJ:  cpu time    0.07: real time    0.07
     EDDAV:  cpu time    4.45: real time    4.45
       DOS:  cpu time    0.00: real time    0.00
    CHARGE:  cpu time    0.50: real time    0.50
    MIXING:  cpu time    0.03: real time    0.03
    --------------------------------------------
      LOOP:  cpu time    6.18: real time    6.18

 eigenvalue-minimisations  :   152
 total energy-change (2. order) : 0.1499017E+01  (-0.7149088E+00)
 number of electron   93.0000000 magnetization 
 augmentation part    -0.9620534 magnetization 

 Broyden mixing:
  rms(total) = 0.40816E+00    rms(broyden)= 0.40816E+00
  rms(prec ) = 0.69932E+00
  weight for this iteration     100.00

 eigenvalues of (default mixing * dielectric matrix)
  average eigenvalue GAMMA=   1.7154
  1.7154

 Free energy of the ion-electron system (eV)
  ---------------------------------------------------
  alpha Z        PSCENC =        -6.32931246
  Ewald energy   TEWEN  =     -2249.28315560
  -1/2 Hartree   DENC   =       -26.60493830
  -exchange  EXHF       =         0.00000000
  -V(xc)+E(xc)   XCENC  =      -811.33123723
  PAW double counting   =      1102.79807833     -112.29525415
  entropy T*S    EENTRO =        -0.04926233
  eigenvalues    EBANDS =       343.56492283
  atomic energy  EATOM  =      1659.68123870
  ---------------------------------------------------
  free energy    TOTEN  =       -99.84892023 eV

  energy without entropy =      -99.79965790  energy(sigma->0) =      -99.83249945


--------------------------------------------------------------------------------------------------------




----------------------------------------- Iteration    1(   7)  ---------------------------------------


    POTLOK:  cpu time    1.12: real time    1.12
    SETDIJ:  cpu time    0.07: real time    0.07
     EDDAV:  cpu time    4.20: real time    4.20
       DOS:  cpu time    0.00: real time    0.00
    CHARGE:  cpu time    0.51: real time    0.51
    MIXING:  cpu time    0.03: real time    0.03
    --------------------------------------------
      LOOP:  cpu time    5.93: real time    5.94

 eigenvalue-minimisations  :   144
 total energy-change (2. order) : 0.2942736E+00  (-0.1121116E+00)
 number of electron   93.0000000 magnetization 
 augmentation part    -0.9711008 magnetization 

 Broyden mixing:
  rms(total) = 0.26446E+00    rms(broyden)= 0.26446E+00
  rms(prec ) = 0.40267E+00
  weight for this iteration     100.00

 eigenvalues of (default mixing * dielectric matrix)
  average eigenvalue GAMMA=   1.5851
  2.4500  0.7202

 Free energy of the ion-electron system (eV)
  ---------------------------------------------------
  alpha Z        PSCENC =        -6.32931246
  Ewald energy   TEWEN  =     -2249.28315560
  -1/2 Hartree   DENC   =       -26.73325871
  -exchange  EXHF       =         0.00000000
  -V(xc)+E(xc)   XCENC  =      -810.49000532
  PAW double counting   =      1102.92173437     -112.48601226
  entropy T*S    EENTRO =        -0.07930235
  eigenvalues    EBANDS =       343.24342702
  atomic energy  EATOM  =      1659.68123870
  ---------------------------------------------------
  free energy    TOTEN  =       -99.55464662 eV

  energy without entropy =      -99.47534426  energy(sigma->0) =      -99.52821250


--------------------------------------------------------------------------------------------------------




----------------------------------------- Iteration    1(   8)  ---------------------------------------


    POTLOK:  cpu time    1.14: real time    1.14
    SETDIJ:  cpu time    0.07: real time    0.07
     EDDAV:  cpu time    4.77: real time    4.77
       DOS:  cpu time    0.00: real time    0.00
    CHARGE:  cpu time    0.51: real time    0.51
    MIXING:  cpu time    0.03: real time    0.03
    --------------------------------------------
      LOOP:  cpu time    6.51: real time    6.52

 eigenvalue-minimisations  :   168
 total energy-change (2. order) : 0.1607181E+00  (-0.2954266E-01)
 number of electron   93.0000000 magnetization 
 augmentation part    -0.9863369 magnetization 

 Broyden mixing:
  rms(total) = 0.74293E-01    rms(broyden)= 0.74293E-01
  rms(prec ) = 0.11625E+00
  weight for this iteration     100.00

 eigenvalues of (default mixing * dielectric matrix)
  average eigenvalue GAMMA=   1.4159
  2.5550  0.9937  0.6990

 Free energy of the ion-electron system (eV)
  ---------------------------------------------------
  alpha Z        PSCENC =        -6.32931246
  Ewald energy   TEWEN  =     -2249.28315560
  -1/2 Hartree   DENC   =       -28.43710270
  -exchange  EXHF       =         0.00000000
  -V(xc)+E(xc)   XCENC  =      -809.11496439
  PAW double counting   =      1103.18375334     -112.86898137
  entropy T*S    EENTRO =        -0.07864601
  eigenvalues    EBANDS =       343.85324196
  atomic energy  EATOM  =      1659.68123870
  ---------------------------------------------------
  free energy    TOTEN  =       -99.39392854 eV

  energy without entropy =      -99.31528253  energy(sigma->0) =      -99.36771320


--------------------------------------------------------------------------------------------------------




----------------------------------------- Iteration    1(   9)  ---------------------------------------


    POTLOK:  cpu time    1.15: real time    1.15
    SETDIJ:  cpu time    0.07: real time    0.07
     EDDAV:  cpu time    4.75: real time    4.75
       DOS:  cpu time    0.00: real time    0.00
    CHARGE:  cpu time    0.50: real time    0.50
    MIXING:  cpu time    0.03: real time    0.03
    --------------------------------------------
      LOOP:  cpu time    6.51: real time    6.51

 eigenvalue-minimisations  :   168
 total energy-change (2. order) : 0.1389524E-01  (-0.3171242E-02)
 number of electron   93.0000000 magnetization 
 augmentation part    -0.9920255 magnetization 

 Broyden mixing:
  rms(total) = 0.19126E-01    rms(broyden)= 0.19126E-01
  rms(prec ) = 0.36933E-01
  weight for this iteration     100.00

 eigenvalues of (default mixing * dielectric matrix)
  average eigenvalue GAMMA=   1.4052
  2.5876  1.4515  0.7018  0.8800

 Free energy of the ion-electron system (eV)
  ---------------------------------------------------
  alpha Z        PSCENC =        -6.32931246
  Ewald energy   TEWEN  =     -2249.28315560
  -1/2 Hartree   DENC   =       -28.93642310
  -exchange  EXHF       =         0.00000000
  -V(xc)+E(xc)   XCENC  =      -808.62876385
  PAW double counting   =      1103.44799462     -113.18991023
  entropy T*S    EENTRO =        -0.07746664
  eigenvalues    EBANDS =       343.93576528
  atomic energy  EATOM  =      1659.68123870
  ---------------------------------------------------
  free energy    TOTEN  =       -99.38003330 eV

  energy without entropy =      -99.30256666  energy(sigma->0) =      -99.35421108


--------------------------------------------------------------------------------------------------------




----------------------------------------- Iteration    1(  10)  ---------------------------------------


    POTLOK:  cpu time    1.14: real time    1.14
    SETDIJ:  cpu time    0.07: real time    0.07
     EDDAV:  cpu time    4.72: real time    4.72
       DOS:  cpu time    0.00: real time    0.00
    CHARGE:  cpu time    0.50: real time    0.50
    MIXING:  cpu time    0.03: real time    0.03
    --------------------------------------------
      LOOP:  cpu time    6.46: real time    6.46

 eigenvalue-minimisations  :   168
 total energy-change (2. order) : 0.1359004E-02  (-0.4484568E-03)
 number of electron   93.0000000 magnetization 
 augmentation part    -0.9936762 magnetization 

 Broyden mixing:
  rms(total) = 0.83034E-02    rms(broyden)= 0.83034E-02
  rms(prec ) = 0.15393E-01
  weight for this iteration     100.00

 eigenvalues of (default mixing * dielectric matrix)
  average eigenvalue GAMMA=   1.3718
  2.6137  1.8091  0.9634  0.6912  0.7817

 Free energy of the ion-electron system (eV)
  ---------------------------------------------------
  alpha Z        PSCENC =        -6.32931246
  Ewald energy   TEWEN  =     -2249.28315560
  -1/2 Hartree   DENC   =       -28.96222303
  -exchange  EXHF       =         0.00000000
  -V(xc)+E(xc)   XCENC  =      -808.53753408
  PAW double counting   =      1103.64419009     -113.40712011
  entropy T*S    EENTRO =        -0.07661945
  eigenvalues    EBANDS =       343.89186164
  atomic energy  EATOM  =      1659.68123870
  ---------------------------------------------------
  free energy    TOTEN  =       -99.37867429 eV

  energy without entropy =      -99.30205484  energy(sigma->0) =      -99.35313448


--------------------------------------------------------------------------------------------------------




----------------------------------------- Iteration    1(  11)  ---------------------------------------


    POTLOK:  cpu time    1.14: real time    1.14
    SETDIJ:  cpu time    0.07: real time    0.07
     EDDAV:  cpu time    4.65: real time    4.65
       DOS:  cpu time    0.00: real time    0.00
    CHARGE:  cpu time    0.51: real time    0.51
    MIXING:  cpu time    0.03: real time    0.03
    --------------------------------------------
      LOOP:  cpu time    6.40: real time    6.40

 eigenvalue-minimisations  :   160
 total energy-change (2. order) : 0.1949402E-03  (-0.1116260E-03)
 number of electron   93.0000000 magnetization 
 augmentation part    -0.9945388 magnetization 

 Broyden mixing:
  rms(total) = 0.31393E-02    rms(broyden)= 0.31393E-02
  rms(prec ) = 0.49616E-02
  weight for this iteration     100.00

 eigenvalues of (default mixing * dielectric matrix)
  average eigenvalue GAMMA=   1.3507
  2.6237  1.9978  1.1519  0.9228  0.7454  0.6629

 Free energy of the ion-electron system (eV)
  ---------------------------------------------------
  alpha Z        PSCENC =        -6.32931246
  Ewald energy   TEWEN  =     -2249.28315560
  -1/2 Hartree   DENC   =       -28.95941787
  -exchange  EXHF       =         0.00000000
  -V(xc)+E(xc)   XCENC  =      -808.50083191
  PAW double counting   =      1103.79400913     -113.57102496
  entropy T*S    EENTRO =        -0.07635662
  eigenvalues    EBANDS =       343.86637224
  atomic energy  EATOM  =      1659.68123870
  ---------------------------------------------------
  free energy    TOTEN  =       -99.37847935 eV

  energy without entropy =      -99.30212273  energy(sigma->0) =      -99.35302715


--------------------------------------------------------------------------------------------------------




----------------------------------------- Iteration    1(  12)  ---------------------------------------


    POTLOK:  cpu time    1.15: real time    1.15
    SETDIJ:  cpu time    0.07: real time    0.07
     EDDAV:  cpu time    3.34: real time    3.35
       DOS:  cpu time    0.00: real time    0.00
    --------------------------------------------
      LOOP:  cpu time    4.57: real time    4.57

 eigenvalue-minimisations  :   104
 total energy-change (2. order) :-0.1185146E-04  (-0.1054168E-04)
 number of electron   93.0000000 magnetization 
 augmentation part    -0.9945388 magnetization 

 Free energy of the ion-electron system (eV)
  ---------------------------------------------------
  alpha Z        PSCENC =        -6.32931246
  Ewald energy   TEWEN  =     -2249.28315560
  -1/2 Hartree   DENC   =       -28.96935906
  -exchange  EXHF       =         0.00000000
  -V(xc)+E(xc)   XCENC  =      -808.48968280
  PAW double counting   =      1103.85777711     -113.64101460
  entropy T*S    EENTRO =        -0.07661500
  eigenvalues    EBANDS =       343.87163253
  atomic energy  EATOM  =      1659.68123870
  ---------------------------------------------------
  free energy    TOTEN  =       -99.37849120 eV

  energy without entropy =      -99.30187620  energy(sigma->0) =      -99.35295287


--------------------------------------------------------------------------------------------------------




 average (electrostatic) potential at core
  the test charge radii are     1.0406
  (the norm of the test charge is              1.0000)
       1 -72.7039       2 -72.8229       3 -72.2449       4 -72.8229       5 -72.2449
       6 -72.2848       7 -72.5916       8 -72.8863       9 -72.6231      10 -72.8125
      11 -72.5297      12 -72.8125      13 -72.5297      14 -72.5801      15 -72.6083
      16 -72.6823      17 -72.6823      18 -72.7208      19 -72.7208      20 -72.7683
      21 -72.7683      22 -72.6393      23 -72.6393      24 -72.6823      25 -72.6823
      26 -72.7683      27 -72.7683      28 -72.7208      29 -72.7208      30 -72.6393
      31 -72.6393
 
 
 
 E-fermi :   8.2015     XC(G=0): -10.1711     alpha+bet :-14.9207
   add alpha+bet to get absolut eigen values

 k-point   1 :       0.0000    0.0000    0.0000
  band No.  band energies     occupation 
      1      -3.2416      2.00000
      2      -1.0812      2.00000
      3      -1.0706      2.00000
      4      -1.0187      2.00000
      5      -0.9954      2.00000
      6      -0.8665      2.00000
      7      -0.5949      2.00000
      8       1.1443      2.00000
      9       1.1480      2.00000
     10       1.1491      2.00000
     11       1.1936      2.00000
     12       1.2054      2.00000
     13       1.2250      2.00000
     14       1.2491      2.00000
     15       1.3854      2.00000
     16       1.4778      2.00000
     17       1.4952      2.00000
     18       1.5202      2.00000
     19       2.2690      2.00000
     20       3.2622      2.00000
     21       3.4065      2.00000
     22       3.4981      2.00000
     23       3.5208      2.00000
     24       3.6495      2.00000
     25       3.6554      2.00000
     26       3.8333      2.00000
     27       4.3992      2.00000
     28       5.1783      2.00000
     29       5.1833      2.00000
     30       5.2283      2.00000
     31       6.4650      2.00000
     32       6.5446      2.00000
     33       6.7612      2.00000
     34       7.0379      2.00000
     35       7.0566      2.00000
     36       7.1021      2.00000
     37       7.1040      2.00000
     38       7.1710      2.00000
     39       7.1712      2.00000
     40       7.2111      2.00000
     41       7.3376      2.00000
     42       7.4354      2.00000
     43       7.6286      2.00039
     44       7.6385      2.00051
     45       7.6428      2.00057
     46       8.0700      1.88849
     47       8.2689      0.46424
     48       8.2861      0.35068
     49       8.3155      0.18808
     50       8.3191      0.17128
     51       8.4796     -0.06423
     52       9.1317      0.00000
     53       9.1327      0.00000
     54       9.1955      0.00000
     55       9.2582      0.00000
     56       9.2722      0.00000
     57       9.3417      0.00000
     58       9.3592      0.00000
     59       9.3686      0.00000
     60       9.4060      0.00000
     61       9.4365      0.00000
     62       9.4775      0.00000


--------------------------------------------------------------------------------------------------------


 soft charge-density along one line, spin component           1
         0         1         2         3         4         5         6         7         8         9
 total charge-density along one line
 
 pseudopotential strength for first ion, spin component:           1
  8.446  -0.006   0.000   0.000   0.000   0.000   0.000   0.000
 -0.006   0.000   0.000   0.000   0.000   0.000   0.000   0.000
  0.000   0.000   1.987   0.000   0.000  -0.026   0.000   0.000
  0.000   0.000   0.000   1.988   0.000   0.000  -0.026   0.000
  0.000   0.000   0.000   0.000   1.987   0.000   0.000  -0.026
  0.000   0.000  -0.026   0.000   0.000  -0.012   0.000   0.000
  0.000   0.000   0.000  -0.026   0.000   0.000  -0.012   0.000
  0.000   0.000   0.000   0.000  -0.026   0.000   0.000  -0.012
 total augmentation occupancy for first ion, spin component:           1
  1.140  -0.580  -0.004   0.000  -0.004   0.000   0.000   0.000
 -0.580   0.490  -0.002   0.000  -0.002   0.000   0.000   0.000
 -0.004  -0.002   0.848   0.000  -0.004  -0.165   0.000   0.001
  0.000   0.000   0.000   0.791   0.000   0.000  -0.160   0.000
 -0.004  -0.002  -0.004   0.000   0.848   0.001   0.000  -0.165
  0.000   0.000  -0.165   0.000   0.001   0.040   0.000   0.000
  0.000   0.000   0.000  -0.160   0.000   0.000   0.040   0.000
  0.000   0.000   0.001   0.000  -0.165   0.000   0.000   0.040


------------------------ aborting loop because EDIFF is reached ----------------------------------------




--------------------------------------------------------------------------------------------------------



  FREE ENERGIE OF THE ION-ELECTRON SYSTEM (eV)
  ---------------------------------------------------
  free  energy   TOTEN  =       -99.378491 eV

  energy  without entropy=      -99.301876  energy(sigma->0) =      -99.352953
 
    CHARGE:  cpu time    0.49: real time    0.49
    FORLOC:  cpu time    0.27: real time    0.27
    FORNL :  cpu time    1.65: real time    1.65
    STRESS:  cpu time    2.03: real time    2.03
    FORCOR:  cpu time    1.34: real time    1.34
    FORHAR:  cpu time    0.54: real time    0.54
    MIXING:  cpu time    0.03: real time    0.03

  FORCE on cell =-STRESS in cart. coord.  units (eV):
  Direction    XX          YY          ZZ          XY          YZ          ZX
  --------------------------------------------------------------------------------------
  Alpha Z    -6.32931    -6.32931    -6.32931
  Ewald    -751.66697  -751.66697  -745.95837    -8.51966     0.00000     0.00000
  Hartree    11.17451    11.17451     6.64180    -1.11498     0.00000     0.00000
  E(xc)    -266.41718  -266.41718  -266.60422     0.07935     0.00000     0.00000
  Local      -6.36740    -6.36740    -6.03639     9.84589     0.00000     0.00000
  n-local   562.55540   562.55541   564.36510    -1.11836     0.00001     0.00001
  augment   -26.57225   -26.57225   -26.48074     0.05271     0.00000     0.00000
  Kinetic   486.87248   486.87252   485.84703     0.50994    -0.00002     0.00000
  Fock        0.00000     0.00000     0.00000     0.00000     0.00000     0.00000
  -------------------------------------------------------------------------------------
  Total       3.24930     3.24930     5.44489    -0.26510     0.00000     0.00000
  in kB      10.20816    10.20816    17.10595    -0.83286     0.00000     0.00000
  external pressure =       12.51 kB  Pullay stress =        0.00 kB


 VOLUME and BASIS-vectors are now :
 -----------------------------------------------------------------------------
  energy-cutoff  :      360.00
  volume of cell :      509.98
      direct lattice vectors                 reciprocal lattice vectors
     7.989461639  0.000000000  0.000000000     0.125164879  0.000000000  0.000000000
     0.000000000  7.989461639  0.000000000     0.000000000  0.125164879  0.000000000
     0.000000000  0.000000000  7.989461639     0.000000000  0.000000000  0.125164879

  length of vectors
     7.989461639  7.989461639  7.989461639     0.125164879  0.125164879  0.125164879


 FORCES acting on ions
    electron-ion (+dipol)            ewald-force                    non-local-force                 convergence-correction
 -----------------------------------------------------------------------------------------------
   0.639E-01 0.639E-01 -.170E-06   -.715E-01 -.715E-01 -.311E-14   0.498E-01 0.498E-01 0.000E+00   0.678E-04 0.678E-04 -.620E-13
   -.448E+01 0.185E+00 -.428E-07   0.381E+01 -.121E+00 0.111E-14   0.525E+00 -.370E+00 0.000E+00   0.574E-03 0.156E-02 0.615E-13
   -.613E+00 -.205E+00 -.186E-06   0.621E+00 -.808E-01 -.250E-14   -.265E+00 0.150E+00 0.000E+00   -.748E-03 -.315E-03 -.607E-13
   0.185E+00 -.448E+01 -.428E-07   -.121E+00 0.381E+01 0.228E-14   -.370E+00 0.525E+00 0.000E+00   0.156E-02 0.574E-03 0.932E-13
   -.205E+00 -.613E+00 -.186E-06   -.808E-01 0.621E+00 -.183E-14   0.150E+00 -.265E+00 0.000E+00   -.315E-03 -.748E-03 -.923E-13
   0.601E+01 0.601E+01 -.263E-06   -.580E+01 -.580E+01 0.167E-15   -.403E+00 -.403E+00 0.000E+00   -.594E-03 -.594E-03 0.848E-13
   0.952E+00 0.952E+00 -.200E-06   -.703E+00 -.703E+00 0.822E-14   -.109E+00 -.109E+00 0.000E+00   0.841E-03 0.841E-03 -.828E-13
   0.208E+01 0.208E+01 -.147E-07   -.423E+01 -.423E+01 0.511E-14   0.269E+01 0.269E+01 0.000E+00   -.155E-02 -.155E-02 0.680E-13
   0.168E+01 0.168E+01 -.240E-06   -.149E+01 -.149E+01 0.444E-14   -.202E+00 -.202E+00 0.000E+00   -.232E-02 -.232E-02 -.702E-13
   0.120E+02 -.881E+01 0.575E-07   -.111E+02 0.801E+01 0.611E-15   -.912E+00 0.100E+01 0.000E+00   -.249E-02 0.372E-03 0.612E-13
   0.222E+01 -.181E+01 -.177E-06   -.227E+01 0.174E+01 0.311E-14   0.318E+00 0.110E+00 0.000E+00   -.162E-02 0.285E-02 -.592E-13
   -.881E+01 0.120E+02 0.575E-07   0.801E+01 -.111E+02 -.289E-14   0.100E+01 -.912E+00 0.000E+00   0.372E-03 -.249E-02 0.940E-13
   -.181E+01 0.222E+01 -.177E-06   0.174E+01 -.227E+01 0.389E-15   0.110E+00 0.318E+00 0.000E+00   0.285E-02 -.162E-02 -.935E-13
   -.120E+02 -.120E+02 0.683E-08   0.115E+02 0.115E+02 -.117E-14   0.609E+00 0.609E+00 0.000E+00   0.231E-02 0.231E-02 0.762E-13
   -.255E+01 -.255E+01 -.123E-06   0.230E+01 0.230E+01 -.611E-15   0.103E+00 0.103E+00 0.000E+00   0.158E-02 0.158E-02 -.752E-13
   0.979E+01 -.165E+00 0.100E+02   -.895E+01 0.251E+00 -.976E+01   -.576E+00 -.420E+00 0.160E-01   -.179E-02 -.108E-02 -.431E-03
   0.979E+01 -.165E+00 -.100E+02   -.895E+01 0.251E+00 0.976E+01   -.576E+00 -.420E+00 -.160E-01   -.179E-02 -.108E-02 0.431E-03
   0.130E+01 0.410E+01 0.811E+01   -.101E+01 -.365E+01 -.756E+01   -.244E+00 -.577E+00 -.631E+00   -.149E-02 0.415E-03 -.272E-02
   0.130E+01 0.410E+01 -.811E+01   -.101E+01 -.365E+01 0.756E+01   -.244E+00 -.577E+00 0.631E+00   -.149E-02 0.415E-03 0.272E-02
   -.116E+02 -.224E+00 0.130E+02   0.108E+02 0.127E+00 -.123E+02   0.828E+00 0.726E-02 -.781E+00   0.228E-02 -.113E-03 -.221E-02
   -.116E+02 -.224E+00 -.130E+02   0.108E+02 0.127E+00 0.123E+02   0.828E+00 0.726E-02 0.781E+00   0.228E-02 -.113E-03 0.221E-02
   -.132E+01 0.152E+00 0.345E+01   0.160E+01 -.270E+00 -.331E+01   -.581E-01 -.332E-01 0.217E-01   0.170E-02 0.166E-03 -.135E-02
   -.132E+01 0.152E+00 -.345E+01   0.160E+01 -.270E+00 0.331E+01   -.581E-01 -.332E-01 -.217E-01   0.170E-02 0.166E-03 0.135E-02
   -.165E+00 0.979E+01 0.100E+02   0.251E+00 -.895E+01 -.976E+01   -.420E+00 -.576E+00 0.160E-01   -.108E-02 -.179E-02 -.431E-03
   -.165E+00 0.979E+01 -.100E+02   0.251E+00 -.895E+01 0.976E+01   -.420E+00 -.576E+00 -.160E-01   -.108E-02 -.179E-02 0.431E-03
   -.224E+00 -.116E+02 0.130E+02   0.127E+00 0.108E+02 -.123E+02   0.726E-02 0.828E+00 -.781E+00   -.113E-03 0.228E-02 -.221E-02
   -.224E+00 -.116E+02 -.130E+02   0.127E+00 0.108E+02 0.123E+02   0.726E-02 0.828E+00 0.781E+00   -.113E-03 0.228E-02 0.221E-02
   0.410E+01 0.130E+01 0.811E+01   -.365E+01 -.101E+01 -.756E+01   -.577E+00 -.244E+00 -.631E+00   0.415E-03 -.149E-02 -.272E-02
   0.410E+01 0.130E+01 -.811E+01   -.365E+01 -.101E+01 0.756E+01   -.577E+00 -.244E+00 0.631E+00   0.415E-03 -.149E-02 0.272E-02
   0.152E+00 -.132E+01 0.345E+01   -.270E+00 0.160E+01 -.331E+01   -.332E-01 -.581E-01 0.217E-01   0.166E-03 0.170E-02 -.135E-02
   0.152E+00 -.132E+01 -.345E+01   -.270E+00 0.160E+01 0.331E+01   -.332E-01 -.581E-01 -.217E-01   0.166E-03 0.170E-02 0.135E-02
 -----------------------------------------------------------------------------------------------
   -.115E+01 -.115E+01 -.348E-05   -.805E-14 0.222E-14 0.178E-14   0.115E+01 0.115E+01 0.000E+00   0.702E-03 0.702E-03 -.931E-13
 
 
 POSITION                                       TOTAL-FORCE (eV/Angst)
 -----------------------------------------------------------------------------------
      0.01441      0.01441      3.99473         0.042249      0.042249      0.000000
      0.00173      4.02522      0.00000        -0.145672     -0.304983      0.000000
      0.01441      4.01253      3.99473        -0.258014     -0.136325      0.000000
      4.02522      0.00173      0.00000        -0.304983     -0.145672      0.000000
      4.01253      0.01441      3.99473        -0.136325     -0.258014      0.000000
      4.02522      4.02522      0.00000        -0.191921     -0.191921      0.000000
      4.01253      4.01253      3.99473         0.140369      0.140369      0.000000
      1.54289      1.54289      0.00000         0.542267      0.542267      0.000000
      2.01856      2.01856      3.99473        -0.012033     -0.012033      0.000000
      2.05661      5.96507      0.00000         0.057986      0.196693      0.000000
      2.01856      6.00312      3.99473         0.263277      0.042309      0.000000
      5.96507      2.05661      0.00000         0.196693      0.057986      0.000000
      6.00312      2.01856      3.99473         0.042309      0.263277      0.000000
      5.96507      5.96507      0.00000         0.141146      0.141146      0.000000
      6.00312      6.00312      3.99473        -0.142808     -0.142808      0.000000
      2.05661      0.00173      2.05488         0.266745     -0.335077      0.264102
      2.05661      0.00173      5.93459         0.266745     -0.335077     -0.264102
      2.01856      4.02522      2.01683         0.051665     -0.122843     -0.080651
      2.01856      4.02522      5.97263         0.051665     -0.122843      0.080651
      5.96507      0.01441      2.04219         0.043002     -0.089191     -0.106433
      5.96507      0.01441      5.94727         0.043002     -0.089191      0.106433
      6.00312      4.01253      2.00414         0.219240     -0.150810      0.161667
      6.00312      4.01253      5.98532         0.219240     -0.150810     -0.161667
      0.00173      2.05661      2.05488        -0.335077      0.266745      0.264102
      0.00173      2.05661      5.93459        -0.335077      0.266745     -0.264102
      0.01441      5.96507      2.04219        -0.089191      0.043002     -0.106433
      0.01441      5.96507      5.94727        -0.089191      0.043002      0.106433
      4.02522      2.01856      2.01683        -0.122843      0.051665     -0.080651
      4.02522      2.01856      5.97263        -0.122843      0.051665      0.080651
      4.01253      6.00312      2.00414        -0.150810      0.219240      0.161667
      4.01253      6.00312      5.98532        -0.150810      0.219240     -0.161667
 -----------------------------------------------------------------------------------
    total drift:                               -0.000253     -0.000253     -0.000003


--------------------------------------------------------------------------------------------------------


    POTLOK:  cpu time    1.18: real time    1.18


--------------------------------------------------------------------------------------------------------


 NEB: the previous image is higher in energy: F
 NEB: the next image is higher in energy    : T
 NEB: only next energy greater

 NEB: Tangent
 ----------------------------------------------
      0.01946      0.01946      0.00000
      0.00234      0.04115      0.00000
      0.01946      0.02403      0.00000
      0.04115      0.00234      0.00000
      0.02403      0.01946      0.00000
      0.04115      0.04115      0.00000
      0.02403      0.02403      0.00000
     -0.69109     -0.69109      0.00000
      0.01945      0.01945      0.00000
      0.00234      0.04115      0.00000
      0.01945      0.02403      0.00000
      0.04115      0.00234      0.00000
      0.02403      0.01945      0.00000
      0.04115      0.04115      0.00000
      0.02403      0.02403      0.00000
      0.00234      0.00234      0.00000
      0.00234      0.00234      0.00000
      0.01945      0.04115      0.01712
      0.01945      0.04115     -0.01712
      0.04115      0.01946     -0.01712
      0.04115      0.01946      0.01712
      0.02403      0.02403      0.00000
      0.02403      0.02403      0.00000
      0.00234      0.00234      0.00000
      0.00234      0.00234      0.00000
      0.01946      0.04115     -0.01712
      0.01946      0.04115      0.01712
      0.04115      0.01945      0.01712
      0.04115      0.01945     -0.01712
      0.02403      0.02403      0.00000
      0.02403      0.02403      0.00000

 NEB: forces: par spring, perp REAL, dneb     0.000000    1.546872    0.000000
 NEB: distance to prev, next image, angle between     0.740845    0.740845  179.999999
 NEB: projections on to tangent (spring, REAL)     0.000000   -0.774621

  FORCES: max atom, RMS     0.502930    0.277826
  FORCE total and by dimension    1.546872    0.333268
 Quasi-Newton relaxation of ions (Broydens 2nd method)
  g(Force)  = 0.530E+00   g(Stress)= 0.000E+00

 Reset! Starting new Quasi-Newton update for ions 


--------------------------------------------------------------------------------------------------------


    WAVPRE:  cpu time    0.36: real time    0.36
    FEWALD:  cpu time    0.01: real time    0.01
    ORTHCH:  cpu time    0.21: real time    0.22
     LOOP+:  cpu time   75.08: real time   75.11
   RESPFUN:  cpu time    0.00: real time    0.00


----------------------------------------- Iteration    2(   1)  ---------------------------------------


    POTLOK:  cpu time    1.17: real time    1.17
    SETDIJ:  cpu time    0.07: real time    0.07
     EDDAV:  cpu time    4.40: real time    4.40
       DOS:  cpu time    0.00: real time    0.00
    CHARGE:  cpu time    0.50: real time    0.51
    MIXING:  cpu time    0.03: real time    0.03
    --------------------------------------------
      LOOP:  cpu time    6.17: real time    6.17

 eigenvalue-minimisations  :   152
 total energy-change (2. order) :-0.9885974E-01  (-0.1059932E+00)
 number of electron   93.0000000 magnetization 
 augmentation part    -0.9947028 magnetization 

 Broyden mixing:
  rms(total) = 0.34842E-01    rms(broyden)= 0.34841E-01
  rms(prec ) = 0.91140E-01
  weight for this iteration     100.00

 Free energy of the ion-electron system (eV)
  ---------------------------------------------------
  alpha Z        PSCENC =        -6.32931246
  Ewald energy   TEWEN  =     -2248.94184761
  -1/2 Hartree   DENC   =       -29.38987586
  -exchange  EXHF       =         0.00000000
  -V(xc)+E(xc)   XCENC  =      -808.48262610
  PAW double counting   =      1103.89246337     -113.67936839
  entropy T*S    EENTRO =        -0.05038005
  eigenvalues    EBANDS =       343.82236930
  atomic energy  EATOM  =      1659.68123870
  ---------------------------------------------------
  free energy    TOTEN  =       -99.47733909 eV

  energy without entropy =      -99.42695905  energy(sigma->0) =      -99.46054574


--------------------------------------------------------------------------------------------------------




----------------------------------------- Iteration    2(   2)  ---------------------------------------


    POTLOK:  cpu time    1.14: real time    1.14
    SETDIJ:  cpu time    0.07: real time    0.07
     EDDAV:  cpu time    4.26: real time    4.26
       DOS:  cpu time    0.00: real time    0.00
    CHARGE:  cpu time    0.52: real time    0.52
    MIXING:  cpu time    0.03: real time    0.03
    --------------------------------------------
      LOOP:  cpu time    6.02: real time    6.02

 eigenvalue-minimisations  :   144
 total energy-change (2. order) : 0.7611712E-02  (-0.8072621E-02)
 number of electron   93.0000000 magnetization 
 augmentation part    -0.9952178 magnetization 

 Broyden mixing:
  rms(total) = 0.11114E-01    rms(broyden)= 0.11113E-01
  rms(prec ) = 0.24244E-01
  weight for this iteration     100.00

 eigenvalues of (default mixing * dielectric matrix)
  average eigenvalue GAMMA=   1.1344
  1.1344

 Free energy of the ion-electron system (eV)
  ---------------------------------------------------
  alpha Z        PSCENC =        -6.32931246
  Ewald energy   TEWEN  =     -2248.94184761
  -1/2 Hartree   DENC   =       -29.47371745
  -exchange  EXHF       =         0.00000000
  -V(xc)+E(xc)   XCENC  =      -808.48069026
  PAW double counting   =      1103.89078141     -113.67759202
  entropy T*S    EENTRO =        -0.05638195
  eigenvalues    EBANDS =       343.91779427
  atomic energy  EATOM  =      1659.68123870
  ---------------------------------------------------
  free energy    TOTEN  =       -99.46972738 eV

  energy without entropy =      -99.41334543  energy(sigma->0) =      -99.45093340


--------------------------------------------------------------------------------------------------------




----------------------------------------- Iteration    2(   3)  ---------------------------------------


    POTLOK:  cpu time    1.15: real time    1.16
    SETDIJ:  cpu time    0.07: real time    0.07
     EDDAV:  cpu time    4.63: real time    4.63
       DOS:  cpu time    0.00: real time    0.00
    CHARGE:  cpu time    0.52: real time    0.52
    MIXING:  cpu time    0.03: real time    0.03
    --------------------------------------------
      LOOP:  cpu time    6.41: real time    6.41

 eigenvalue-minimisations  :   160
 total energy-change (2. order) : 0.5074844E-03  (-0.5270238E-03)
 number of electron   93.0000000 magnetization 
 augmentation part    -0.9951681 magnetization 

 Broyden mixing:
  rms(total) = 0.51514E-02    rms(broyden)= 0.51514E-02
  rms(prec ) = 0.93375E-02
  weight for this iteration     100.00

 eigenvalues of (default mixing * dielectric matrix)
  average eigenvalue GAMMA=   1.2184
  0.8823  1.5546

 Free energy of the ion-electron system (eV)
  ---------------------------------------------------
  alpha Z        PSCENC =        -6.32931246
  Ewald energy   TEWEN  =     -2248.94184761
  -1/2 Hartree   DENC   =       -29.46574201
  -exchange  EXHF       =         0.00000000
  -V(xc)+E(xc)   XCENC  =      -808.48154430
  PAW double counting   =      1103.87646753     -113.66298446
  entropy T*S    EENTRO =        -0.05852001
  eigenvalues    EBANDS =       343.91302473
  atomic energy  EATOM  =      1659.68123870
  ---------------------------------------------------
  free energy    TOTEN  =       -99.46921990 eV

  energy without entropy =      -99.41069989  energy(sigma->0) =      -99.44971323


--------------------------------------------------------------------------------------------------------




----------------------------------------- Iteration    2(   4)  ---------------------------------------


    POTLOK:  cpu time    1.14: real time    1.14
    SETDIJ:  cpu time    0.07: real time    0.07
     EDDAV:  cpu time    4.40: real time    4.40
       DOS:  cpu time    0.00: real time    0.00
    --------------------------------------------
      LOOP:  cpu time    5.61: real time    5.61

 eigenvalue-minimisations  :   152
 total energy-change (2. order) : 0.6311730E-04  (-0.5864432E-04)
 number of electron   93.0000000 magnetization 
 augmentation part    -0.9951681 magnetization 

 Free energy of the ion-electron system (eV)
  ---------------------------------------------------
  alpha Z        PSCENC =        -6.32931246
  Ewald energy   TEWEN  =     -2248.94184761
  -1/2 Hartree   DENC   =       -29.46047469
  -exchange  EXHF       =         0.00000000
  -V(xc)+E(xc)   XCENC  =      -808.48205846
  PAW double counting   =      1103.87187698     -113.65846185
  entropy T*S    EENTRO =        -0.05824202
  eigenvalues    EBANDS =       343.90812464
  atomic energy  EATOM  =      1659.68123870
  ---------------------------------------------------
  free energy    TOTEN  =       -99.46915678 eV

  energy without entropy =      -99.41091476  energy(sigma->0) =      -99.44974277


--------------------------------------------------------------------------------------------------------




 average (electrostatic) potential at core
  the test charge radii are     1.0406
  (the norm of the test charge is              1.0000)
       1 -72.7007       2 -72.8246       3 -72.2371       4 -72.8246       5 -72.2371
       6 -72.2941       7 -72.5836       8 -72.8957       9 -72.6177      10 -72.8139
      11 -72.5155      12 -72.8139      13 -72.5155      14 -72.5959      15 -72.6042
      16 -72.6684      17 -72.6684      18 -72.7265      19 -72.7265      20 -72.7816
      21 -72.7816      22 -72.6309      23 -72.6309      24 -72.6684      25 -72.6684
      26 -72.7816      27 -72.7816      28 -72.7265      29 -72.7265      30 -72.6309
      31 -72.6309
 
 
 
 E-fermi :   8.2030     XC(G=0): -10.1710     alpha+bet :-14.9207
   add alpha+bet to get absolut eigen values

 k-point   1 :       0.0000    0.0000    0.0000
  band No.  band energies     occupation 
      1      -3.2418      2.00000
      2      -1.1128      2.00000
      3      -1.0525      2.00000
      4      -1.0033      2.00000
      5      -0.9950      2.00000
      6      -0.8626      2.00000
      7      -0.5891      2.00000
      8       1.1129      2.00000
      9       1.1198      2.00000
     10       1.1914      2.00000
     11       1.1930      2.00000
     12       1.2262      2.00000
     13       1.2632      2.00000
     14       1.2677      2.00000
     15       1.3537      2.00000
     16       1.4713      2.00000
     17       1.4803      2.00000
     18       1.5278      2.00000
     19       2.2616      2.00000
     20       3.2903      2.00000
     21       3.4494      2.00000
     22       3.5134      2.00000
     23       3.5244      2.00000
     24       3.6210      2.00000
     25       3.6512      2.00000
     26       3.8044      2.00000
     27       4.4032      2.00000
     28       5.1735      2.00000
     29       5.1834      2.00000
     30       5.2158      2.00000
     31       6.4601      2.00000
     32       6.5440      2.00000
     33       6.7621      2.00000
     34       7.0277      2.00000
     35       7.0837      2.00000
     36       7.0845      2.00000
     37       7.1227      2.00000
     38       7.1264      2.00000
     39       7.2063      2.00000
     40       7.2389      2.00000
     41       7.3385      2.00000
     42       7.4247      2.00000
     43       7.6334      2.00043
     44       7.6351      2.00045
     45       7.6357      2.00045
     46       8.0445      1.97632
     47       8.2759      0.42635
     48       8.2891      0.34117
     49       8.3226      0.16208
     50       8.3269      0.14301
     51       8.5141     -0.05026
     52       9.1227      0.00000
     53       9.1772      0.00000
     54       9.1996      0.00000
     55       9.2706      0.00000
     56       9.3042      0.00000
     57       9.3548      0.00000
     58       9.3563      0.00000
     59       9.3675      0.00000
     60       9.4086      0.00000
     61       9.4110      0.00000
     62       9.4462      0.00000


--------------------------------------------------------------------------------------------------------


 soft charge-density along one line, spin component           1
         0         1         2         3         4         5         6         7         8         9
 total charge-density along one line
 
 pseudopotential strength for first ion, spin component:           1
  8.446  -0.006   0.000   0.000   0.000   0.000   0.000   0.000
 -0.006   0.000   0.000   0.000   0.000   0.000   0.000   0.000
  0.000   0.000   1.987   0.000   0.000  -0.026   0.000   0.000
  0.000   0.000   0.000   1.988   0.000   0.000  -0.026   0.000
  0.000   0.000   0.000   0.000   1.987   0.000   0.000  -0.026
  0.000   0.000  -0.026   0.000   0.000  -0.012   0.000   0.000
  0.000   0.000   0.000  -0.026   0.000   0.000  -0.012   0.000
  0.000   0.000   0.000   0.000  -0.026   0.000   0.000  -0.012
 total augmentation occupancy for first ion, spin component:           1
  1.141  -0.577  -0.004   0.000  -0.004   0.000   0.000   0.000
 -0.577   0.486  -0.004   0.000  -0.004   0.001   0.000   0.001
 -0.004  -0.004   0.846   0.000  -0.003  -0.165   0.000   0.001
  0.000   0.000   0.000   0.789   0.000   0.000  -0.159   0.000
 -0.004  -0.004  -0.003   0.000   0.846   0.001   0.000  -0.165
  0.000   0.001  -0.165   0.000   0.001   0.040   0.000   0.000
  0.000   0.000   0.000  -0.159   0.000   0.000   0.040   0.000
  0.000   0.001   0.001   0.000  -0.165   0.000   0.000   0.040


------------------------ aborting loop because EDIFF is reached ----------------------------------------




--------------------------------------------------------------------------------------------------------



  FREE ENERGIE OF THE ION-ELECTRON SYSTEM (eV)
  ---------------------------------------------------
  free  energy   TOTEN  =       -99.469157 eV

  energy  without entropy=      -99.410915  energy(sigma->0) =      -99.449743
 
    CHARGE:  cpu time    0.51: real time    0.51
    FORLOC:  cpu time    0.27: real time    0.27
    FORNL :  cpu time    1.63: real time    1.63
    STRESS:  cpu time    2.12: real time    2.12
    FORCOR:  cpu time    1.32: real time    1.32
    FORHAR:  cpu time    0.51: real time    0.51
    MIXING:  cpu time    0.03: real time    0.03

  FORCE on cell =-STRESS in cart. coord.  units (eV):
  Direction    XX          YY          ZZ          XY          YZ          ZX
  --------------------------------------------------------------------------------------
  Alpha Z    -6.32931    -6.32931    -6.32931
  Ewald    -751.29790  -751.29790  -746.35514    -8.08974     0.00000     0.00000
  Hartree    11.38127    11.38127     6.67552    -0.90582     0.00000     0.00000
  E(xc)    -266.42512  -266.42512  -266.55546     0.08120     0.00000     0.00000
  Local      -7.14246    -7.14246    -5.21770     9.15343     0.00000     0.00000
  n-local   562.78930   562.78931   563.80946    -1.14972    -0.00001    -0.00003
  augment   -26.60101   -26.60101   -26.45859     0.04743     0.00000     0.00000
  Kinetic   486.47880   486.47876   486.37704     0.87196     0.00003     0.00005
  Fock        0.00000     0.00000     0.00000     0.00000     0.00000     0.00000
  -------------------------------------------------------------------------------------
  Total       2.85354     2.85354     5.94583     0.00873     0.00000     0.00000
  in kB       8.96484     8.96484    18.67974     0.02742     0.00000     0.00000
  external pressure =       12.20 kB  Pullay stress =        0.00 kB


 VOLUME and BASIS-vectors are now :
 -----------------------------------------------------------------------------
  energy-cutoff  :      360.00
  volume of cell :      509.98
      direct lattice vectors                 reciprocal lattice vectors
     7.989461639  0.000000000  0.000000000     0.125164879  0.000000000  0.000000000
     0.000000000  7.989461639  0.000000000     0.000000000  0.125164879  0.000000000
     0.000000000  0.000000000  7.989461639     0.000000000  0.000000000  0.125164879

  length of vectors
     7.989461639  7.989461639  7.989461639     0.125164879  0.125164879  0.125164879


 FORCES acting on ions
    electron-ion (+dipol)            ewald-force                    non-local-force                 convergence-correction
 -----------------------------------------------------------------------------------------------
   0.418E+00 0.418E+00 -.201E-06   -.311E+00 -.311E+00 -.222E-15   -.252E-01 -.252E-01 0.000E+00   0.674E-02 0.674E-02 0.155E-12
   -.509E+01 -.380E+00 -.134E-07   0.428E+01 0.218E+00 0.455E-14   0.721E+00 -.732E-01 0.000E+00   0.500E-02 -.279E-02 -.152E-12
   -.190E+01 -.122E+01 -.889E-07   0.173E+01 0.806E+00 -.372E-14   0.588E-01 0.410E+00 0.000E+00   0.314E-02 -.498E-02 0.140E-12
   -.380E+00 -.509E+01 -.134E-07   0.218E+00 0.428E+01 0.622E-14   -.732E-01 0.721E+00 0.000E+00   -.279E-02 0.500E-02 -.312E-12
   -.122E+01 -.190E+01 -.889E-07   0.806E+00 0.173E+01 0.244E-14   0.410E+00 0.588E-01 0.000E+00   -.498E-02 0.314E-02 0.270E-12
   0.547E+01 0.547E+01 -.259E-06   -.537E+01 -.537E+01 0.000E+00   -.201E+00 -.201E+00 0.000E+00   -.100E-02 -.100E-02 -.321E-12
   0.164E+01 0.164E+01 -.252E-06   -.118E+01 -.118E+01 -.611E-15   -.283E+00 -.283E+00 0.000E+00   -.204E-02 -.204E-02 0.262E-12
   0.234E+01 0.234E+01 -.139E-07   -.450E+01 -.450E+01 -.150E-14   0.260E+01 0.260E+01 0.000E+00   0.438E-03 0.438E-03 -.142E-12
   0.142E+01 0.142E+01 -.232E-06   -.133E+01 -.133E+01 -.500E-15   -.146E+00 -.146E+00 0.000E+00   0.323E-02 0.323E-02 0.125E-12
   0.124E+02 -.800E+01 0.436E-07   -.114E+02 0.745E+01 0.999E-15   -.108E+01 0.702E+00 0.000E+00   0.101E-02 -.324E-02 -.111E-12
   0.356E+01 -.823E+00 -.190E-06   -.340E+01 0.864E+00 0.328E-14   -.306E-01 -.116E+00 0.000E+00   0.620E-02 -.442E-02 0.808E-13
   -.800E+01 0.124E+02 0.436E-07   0.745E+01 -.114E+02 0.494E-14   0.702E+00 -.108E+01 0.000E+00   -.324E-02 0.101E-02 -.283E-12
   -.823E+00 0.356E+01 -.190E-06   0.864E+00 -.340E+01 0.167E-14   -.116E+00 -.306E-01 0.000E+00   -.442E-02 0.620E-02 0.263E-12
   -.114E+02 -.114E+02 0.235E-07   0.110E+02 0.110E+02 0.233E-14   0.428E+00 0.428E+00 0.000E+00   -.517E-02 -.517E-02 -.371E-12
   -.329E+01 -.329E+01 -.439E-07   0.282E+01 0.282E+01 -.361E-14   0.297E+00 0.297E+00 0.000E+00   -.848E-02 -.848E-02 0.350E-12
   0.107E+02 -.139E+01 0.106E+02   -.965E+01 0.122E+01 -.102E+02   -.885E+00 -.186E-01 -.213E+00   0.200E-02 0.480E-02 0.466E-02
   0.107E+02 -.139E+01 -.106E+02   -.965E+01 0.122E+01 0.102E+02   -.885E+00 -.186E-01 0.213E+00   0.200E-02 0.480E-02 -.466E-02
   0.148E+01 0.398E+01 0.803E+01   -.115E+01 -.358E+01 -.754E+01   -.325E+00 -.476E+00 -.555E+00   0.215E-02 -.106E-02 0.813E-02
   0.148E+01 0.398E+01 -.803E+01   -.115E+01 -.358E+01 0.754E+01   -.325E+00 -.476E+00 0.555E+00   0.215E-02 -.106E-02 -.813E-02
   -.115E+02 -.548E+00 0.128E+02   0.108E+02 0.389E+00 -.122E+02   0.753E+00 0.128E+00 -.703E+00   -.620E-02 0.743E-02 0.423E-02
   -.115E+02 -.548E+00 -.128E+02   0.108E+02 0.389E+00 0.122E+02   0.753E+00 0.128E+00 0.703E+00   -.620E-02 0.743E-02 -.423E-02
   -.365E+00 -.501E+00 0.445E+01   0.833E+00 0.270E+00 -.411E+01   -.378E+00 0.187E+00 -.203E+00   -.535E-02 -.412E-02 0.828E-02
   -.365E+00 -.501E+00 -.445E+01   0.833E+00 0.270E+00 0.411E+01   -.378E+00 0.187E+00 0.203E+00   -.535E-02 -.412E-02 -.828E-02
   -.139E+01 0.107E+02 0.106E+02   0.122E+01 -.965E+01 -.102E+02   -.186E-01 -.885E+00 -.213E+00   0.480E-02 0.200E-02 0.466E-02
   -.139E+01 0.107E+02 -.106E+02   0.122E+01 -.965E+01 0.102E+02   -.186E-01 -.885E+00 0.213E+00   0.480E-02 0.200E-02 -.466E-02
   -.548E+00 -.115E+02 0.128E+02   0.389E+00 0.108E+02 -.122E+02   0.128E+00 0.753E+00 -.703E+00   0.743E-02 -.620E-02 0.423E-02
   -.548E+00 -.115E+02 -.128E+02   0.389E+00 0.108E+02 0.122E+02   0.128E+00 0.753E+00 0.703E+00   0.743E-02 -.620E-02 -.423E-02
   0.398E+01 0.148E+01 0.803E+01   -.358E+01 -.115E+01 -.754E+01   -.476E+00 -.325E+00 -.555E+00   -.106E-02 0.215E-02 0.813E-02
   0.398E+01 0.148E+01 -.803E+01   -.358E+01 -.115E+01 0.754E+01   -.476E+00 -.325E+00 0.555E+00   -.106E-02 0.215E-02 -.813E-02
   -.501E+00 -.365E+00 0.445E+01   0.270E+00 0.833E+00 -.411E+01   0.187E+00 -.378E+00 -.203E+00   -.412E-02 -.535E-02 0.828E-02
   -.501E+00 -.365E+00 -.445E+01   0.270E+00 0.833E+00 0.411E+01   0.187E+00 -.378E+00 0.203E+00   -.412E-02 -.535E-02 -.828E-02
 -----------------------------------------------------------------------------------------------
   -.122E+01 -.122E+01 -.290E-05   -.538E-13 -.356E-13 0.533E-14   0.123E+01 0.123E+01 0.194E-15   -.705E-02 -.705E-02 0.255E-12
 
 
 POSITION                                       TOTAL-FORCE (eV/Angst)
 -----------------------------------------------------------------------------------
      0.01718      0.01718      3.99473         0.088787      0.088787      0.000000
     -0.00521      4.01204      0.00000        -0.090557     -0.238068      0.000000
      0.00269      4.00685      3.99473        -0.110546     -0.012663      0.000000
      4.01204     -0.00521      0.00000        -0.238068     -0.090557      0.000000
      4.00685      0.00269      3.99473        -0.012663     -0.110546      0.000000
      4.01750      4.01750      0.00000        -0.101213     -0.101213      0.000000
      4.02020      4.02020      3.99473         0.175361      0.175361      0.000000
      1.54322      1.54322      0.00000         0.436834      0.436834      0.000000
      2.01870      2.01870      3.99473        -0.051398     -0.051398      0.000000
      2.05949      5.97610      0.00000        -0.006513      0.145126      0.000000
      2.03199      6.00606      3.99473         0.134323     -0.079782      0.000000
      5.97610      2.05949      0.00000         0.145126     -0.006513      0.000000
      6.00606      2.03199      3.99473        -0.079782      0.134323      0.000000
      5.97342      5.97342      0.00000         0.047558      0.047558      0.000000
      5.99713      5.99713      3.99473        -0.181863     -0.181863      0.000000
      2.06956     -0.01435      2.06762         0.137268     -0.179008      0.166766
      2.06956     -0.01435      5.92185         0.137268     -0.179008     -0.166766
      2.02178      4.02083      2.01358         0.007565     -0.069284     -0.058209
      2.02178      4.02083      5.97589         0.007565     -0.069284      0.058209
      5.96868      0.01084      2.03642         0.013147     -0.024017     -0.077154
[...]
  free energy    TOTEN  =       -99.64095302 eV

  energy without entropy =      -99.66695219  energy(sigma->0) =      -99.64961941


--------------------------------------------------------------------------------------------------------




----------------------------------------- Iteration   14(   2)  ---------------------------------------


    POTLOK:  cpu time    1.15: real time    1.15
    SETDIJ:  cpu time    0.07: real time    0.07
     EDDAV:  cpu time    4.26: real time    4.26
       DOS:  cpu time    0.00: real time    0.00
    --------------------------------------------
      LOOP:  cpu time    5.49: real time    5.49

 eigenvalue-minimisations  :   146
 total energy-change (2. order) : 0.6280274E-04  (-0.4891173E-04)
 number of electron   92.9999999 magnetization 
 augmentation part    -0.9970323 magnetization 

 Free energy of the ion-electron system (eV)
  ---------------------------------------------------
  alpha Z        PSCENC =        -6.32931246
  Ewald energy   TEWEN  =     -2251.24940894
  -1/2 Hartree   DENC   =       -27.77690859
  -exchange  EXHF       =         0.00000000
  -V(xc)+E(xc)   XCENC  =      -808.52286000
  PAW double counting   =      1104.24480786     -114.05101152
  entropy T*S    EENTRO =         0.02540048
  eigenvalues    EBANDS =       344.33716425
  atomic energy  EATOM  =      1659.68123870
  ---------------------------------------------------
  free energy    TOTEN  =       -99.64089021 eV

  energy without entropy =      -99.66629070  energy(sigma->0) =      -99.64935704


--------------------------------------------------------------------------------------------------------




 average (electrostatic) potential at core
  the test charge radii are     1.0406
  (the norm of the test charge is              1.0000)
       1 -72.6346       2 -72.8110       3 -72.2588       4 -72.8110       5 -72.2588
       6 -72.3978       7 -72.4317       8 -72.8485       9 -72.5621      10 -72.8317
      11 -72.4770      12 -72.8317      13 -72.4770      14 -72.6602      15 -72.5269
      16 -72.6546      17 -72.6546      18 -72.7148      19 -72.7148      20 -72.7833
      21 -72.7833      22 -72.6354      23 -72.6354      24 -72.6546      25 -72.6546
      26 -72.7833      27 -72.7833      28 -72.7148      29 -72.7148      30 -72.6354
      31 -72.6354
 
 
 
 E-fermi :   8.2091     XC(G=0): -10.1728     alpha+bet :-14.9207
   add alpha+bet to get absolut eigen values

 k-point   1 :       0.0000    0.0000    0.0000
  band No.  band energies     occupation 
      1      -3.2351      2.00000
      2      -1.1439      2.00000
      3      -1.0188      2.00000
      4      -0.9837      2.00000
      5      -0.8984      2.00000
      6      -0.8416      2.00000
      7      -0.6508      2.00000
      8       1.1003      2.00000
      9       1.1333      2.00000
     10       1.2062      2.00000
     11       1.2218      2.00000
     12       1.2705      2.00000
     13       1.3000      2.00000
     14       1.3354      2.00000
     15       1.3530      2.00000
     16       1.4655      2.00000
     17       1.4978      2.00000
     18       1.5188      2.00000
     19       2.1974      2.00000
     20       3.3119      2.00000
     21       3.5055      2.00000
     22       3.5134      2.00000
     23       3.5397      2.00000
     24       3.6331      2.00000
     25       3.6557      2.00000
     26       3.7660      2.00000
     27       4.3821      2.00000
     28       5.1798      2.00000
     29       5.1842      2.00000
     30       5.1937      2.00000
     31       6.4649      2.00000
     32       6.5500      2.00000
     33       6.7526      2.00000
     34       7.0228      2.00000
     35       7.0596      2.00000
     36       7.0862      2.00000
     37       7.2192      2.00000
     38       7.2271      2.00000
     39       7.2821      2.00000
     40       7.3139      2.00000
     41       7.3309      2.00000
     42       7.4136      2.00000
     43       7.5358      2.00002
     44       7.5618      2.00005
     45       7.6072      2.00018
     46       7.9627      2.07090
     47       8.2098      0.99368
     48       8.3675      0.02388
     49       8.3697      0.01823
     50       8.4337     -0.06727
     51       8.5432     -0.03967
     52       9.0880      0.00000
     53       9.1436      0.00000
     54       9.2570      0.00000
     55       9.2778      0.00000
     56       9.3185      0.00000
     57       9.3231      0.00000
     58       9.3266      0.00000
     59       9.3905      0.00000
     60       9.4162      0.00000
     61       9.4179      0.00000
     62       9.4767      0.00000


--------------------------------------------------------------------------------------------------------


 soft charge-density along one line, spin component           1
         0         1         2         3         4         5         6         7         8         9
 total charge-density along one line
 
 pseudopotential strength for first ion, spin component:           1
  8.445  -0.006  -0.001   0.000  -0.001   0.000   0.000   0.000
 -0.006   0.000   0.000   0.000   0.000   0.000   0.000   0.000
 -0.001   0.000   1.988   0.000   0.000  -0.027   0.000   0.000
  0.000   0.000   0.000   1.988   0.000   0.000  -0.027   0.000
 -0.001   0.000   0.000   0.000   1.988   0.000   0.000  -0.027
  0.000   0.000  -0.027   0.000   0.000  -0.012   0.000   0.000
  0.000   0.000   0.000  -0.027   0.000   0.000  -0.012   0.000
  0.000   0.000   0.000   0.000  -0.027   0.000   0.000  -0.012
 total augmentation occupancy for first ion, spin component:           1
  1.142  -0.569   0.000   0.000   0.000  -0.007   0.000  -0.007
 -0.569   0.472  -0.018   0.000  -0.018   0.007   0.000   0.007
  0.000  -0.018   0.859   0.000   0.023  -0.163   0.000  -0.003
  0.000   0.000   0.000   0.804   0.000   0.000  -0.163   0.000
  0.000  -0.018   0.023   0.000   0.859  -0.003   0.000  -0.163
 -0.007   0.007  -0.163   0.000  -0.003   0.039   0.000   0.000
  0.000   0.000   0.000  -0.163   0.000   0.000   0.041   0.000
 -0.007   0.007  -0.003   0.000  -0.163   0.000   0.000   0.039


------------------------ aborting loop because EDIFF is reached ----------------------------------------




--------------------------------------------------------------------------------------------------------



  FREE ENERGIE OF THE ION-ELECTRON SYSTEM (eV)
  ---------------------------------------------------
  free  energy   TOTEN  =       -99.640890 eV

  energy  without entropy=      -99.666291  energy(sigma->0) =      -99.649357
 
    CHARGE:  cpu time    0.43: real time    0.43
    FORLOC:  cpu time    0.26: real time    0.26
    FORNL :  cpu time    1.63: real time    1.63
    STRESS:  cpu time    2.07: real time    2.07
    FORCOR:  cpu time    1.35: real time    1.35
    FORHAR:  cpu time    0.54: real time    0.54
    MIXING:  cpu time    0.03: real time    0.03

  FORCE on cell =-STRESS in cart. coord.  units (eV):
  Direction    XX          YY          ZZ          XY          YZ          ZX
  --------------------------------------------------------------------------------------
  Alpha Z    -6.32931    -6.32931    -6.32931
  Ewald    -750.46876  -750.46876  -750.32070    -6.44034     0.00000     0.00000
  Hartree    12.15796    12.15796     3.46766    -2.12792     0.00000     0.00000
  E(xc)    -266.47673  -266.47673  -266.50551     0.01976     0.00000     0.00000
  Local      -9.71315    -9.71315     3.37287     8.70455     0.00000     0.00000
  n-local   564.28777   564.28777   563.69697    -0.44661     0.00000     0.00000
  augment   -26.71321   -26.71321   -26.37855    -0.00862     0.00000     0.00000
  Kinetic   485.97814   485.97814   486.20515     2.11511     0.00000     0.00000
  Fock        0.00000     0.00000     0.00000     0.00000     0.00000     0.00000
  -------------------------------------------------------------------------------------
  Total       2.72270     2.72270     7.20857     1.81593     0.00000     0.00000
  in kB       8.55379     8.55379    22.64683     5.70503     0.00000     0.00000
  external pressure =       13.25 kB  Pullay stress =        0.00 kB


 VOLUME and BASIS-vectors are now :
 -----------------------------------------------------------------------------
  energy-cutoff  :      360.00
  volume of cell :      509.98
      direct lattice vectors                 reciprocal lattice vectors
     7.989461639  0.000000000  0.000000000     0.125164879  0.000000000  0.000000000
     0.000000000  7.989461639  0.000000000     0.000000000  0.125164879  0.000000000
     0.000000000  0.000000000  7.989461639     0.000000000  0.000000000  0.125164879

  length of vectors
     7.989461639  7.989461639  7.989461639     0.125164879  0.125164879  0.125164879


 FORCES acting on ions
    electron-ion (+dipol)            ewald-force                    non-local-force                 convergence-correction
 -----------------------------------------------------------------------------------------------
   0.237E+01 0.237E+01 -.123E-06   -.190E+01 -.190E+01 0.333E-15   -.473E+00 -.473E+00 0.000E+00   -.567E-03 -.567E-03 -.721E-14
   -.320E+01 -.496E+01 -.703E-07   0.280E+01 0.326E+01 -.833E-15   0.387E+00 0.172E+01 0.000E+00   0.965E-03 -.267E-03 0.177E-13
   -.370E+01 -.220E+01 -.586E-07   0.340E+01 0.184E+01 -.372E-14   0.302E+00 0.333E+00 0.000E+00   -.402E-03 0.135E-02 0.150E-13
   -.496E+01 -.320E+01 -.703E-07   0.326E+01 0.280E+01 0.155E-14   0.172E+01 0.387E+00 0.000E+00   -.267E-03 0.965E-03 -.277E-13
   -.220E+01 -.370E+01 -.586E-07   0.184E+01 0.340E+01 -.111E-14   0.333E+00 0.302E+00 0.000E+00   0.135E-02 -.402E-03 0.107E-12
   0.301E+01 0.301E+01 -.140E-06   -.309E+01 -.309E+01 -.278E-15   0.819E-01 0.819E-01 0.000E+00   -.173E-02 -.173E-02 -.443E-14
   0.640E+01 0.640E+01 0.101E-08   -.461E+01 -.461E+01 -.500E-15   -.179E+01 -.179E+01 0.000E+00   0.593E-03 0.593E-03 0.910E-13
   0.157E+01 0.157E+01 0.119E-06   -.391E+01 -.391E+01 -.472E-14   0.250E+01 0.250E+01 0.000E+00   -.614E-03 -.614E-03 0.145E-12
   0.155E+01 0.155E+01 -.834E-07   -.135E+01 -.135E+01 -.133E-14   -.196E+00 -.196E+00 0.000E+00   -.361E-02 -.361E-02 -.644E-13
   0.920E+01 -.117E+01 0.742E-07   -.907E+01 0.279E+01 -.777E-15   -.136E+00 -.162E+01 0.000E+00   -.166E-02 0.133E-03 0.320E-13
   0.815E+01 -.211E+01 0.480E-07   -.700E+01 0.152E+01 -.222E-15   -.115E+01 0.582E+00 0.000E+00   -.349E-02 0.222E-02 0.974E-14
   -.117E+01 0.920E+01 0.742E-07   0.279E+01 -.907E+01 -.389E-15   -.162E+01 -.136E+00 0.000E+00   0.133E-03 -.166E-02 -.385E-13
   -.211E+01 0.815E+01 0.480E-07   0.152E+01 -.700E+01 -.200E-14   0.582E+00 -.115E+01 0.000E+00   0.222E-02 -.349E-02 0.146E-12
   -.752E+01 -.752E+01 -.115E-06   0.781E+01 0.781E+01 -.450E-14   -.284E+00 -.284E+00 0.000E+00   0.262E-02 0.262E-02 -.118E-12
   -.946E+01 -.946E+01 -.171E-06   0.749E+01 0.749E+01 -.155E-14   0.196E+01 0.196E+01 0.000E+00   0.348E-02 0.348E-02 0.247E-13
   0.101E+02 -.813E+00 0.882E+01   -.926E+01 0.607E+00 -.877E+01   -.891E+00 0.207E+00 -.637E-01   -.189E-02 0.119E-02 0.116E-02
   0.101E+02 -.813E+00 -.882E+01   -.926E+01 0.607E+00 0.877E+01   -.891E+00 0.207E+00 0.637E-01   -.189E-02 0.119E-02 -.116E-02
   0.135E+01 0.432E+00 0.989E+01   -.111E+01 -.886E+00 -.921E+01   -.242E+00 0.444E+00 -.670E+00   -.391E-02 -.366E-03 -.110E-02
   0.135E+01 0.432E+00 -.989E+01   -.111E+01 -.886E+00 0.921E+01   -.242E+00 0.444E+00 0.670E+00   -.391E-02 -.366E-03 0.110E-02
   -.919E+01 -.163E+01 0.111E+02   0.909E+01 0.122E+01 -.109E+02   0.741E-01 0.402E+00 -.149E+00   0.266E-02 -.549E-03 0.199E-02
   -.919E+01 -.163E+01 -.111E+02   0.909E+01 0.122E+01 0.109E+02   0.741E-01 0.402E+00 0.149E+00   0.266E-02 -.549E-03 -.199E-02
   -.800E+00 0.794E+00 0.124E+02   0.105E+01 -.695E+00 -.104E+02   -.257E+00 -.102E+00 -.195E+01   0.421E-02 0.311E-03 0.949E-03
   -.800E+00 0.794E+00 -.124E+02   0.105E+01 -.695E+00 0.104E+02   -.257E+00 -.102E+00 0.195E+01   0.421E-02 0.311E-03 -.949E-03
   -.813E+00 0.101E+02 0.882E+01   0.607E+00 -.926E+01 -.877E+01   0.207E+00 -.891E+00 -.637E-01   0.119E-02 -.189E-02 0.116E-02
   -.813E+00 0.101E+02 -.882E+01   0.607E+00 -.926E+01 0.877E+01   0.207E+00 -.891E+00 0.637E-01   0.119E-02 -.189E-02 -.116E-02
   -.163E+01 -.919E+01 0.111E+02   0.122E+01 0.909E+01 -.109E+02   0.402E+00 0.741E-01 -.149E+00   -.549E-03 0.266E-02 0.199E-02
   -.163E+01 -.919E+01 -.111E+02   0.122E+01 0.909E+01 0.109E+02   0.402E+00 0.741E-01 0.149E+00   -.549E-03 0.266E-02 -.199E-02
   0.432E+00 0.135E+01 0.989E+01   -.886E+00 -.111E+01 -.921E+01   0.444E+00 -.242E+00 -.670E+00   -.366E-03 -.391E-02 -.110E-02
   0.432E+00 0.135E+01 -.989E+01   -.886E+00 -.111E+01 0.921E+01   0.444E+00 -.242E+00 0.670E+00   -.366E-03 -.391E-02 0.110E-02
   0.794E+00 -.800E+00 0.124E+02   -.695E+00 0.105E+01 -.104E+02   -.102E+00 -.257E+00 -.195E+01   0.311E-03 0.421E-02 0.949E-03
   0.794E+00 -.800E+00 -.124E+02   -.695E+00 0.105E+01 0.104E+02   -.102E+00 -.257E+00 0.195E+01   0.311E-03 0.421E-02 -.949E-03
 -----------------------------------------------------------------------------------------------
   -.149E+01 -.149E+01 -.618E-06   0.301E-13 0.202E-13 -.249E-13   0.149E+01 0.149E+01 -.444E-15   0.230E-02 0.230E-02 0.250E-13
 
 
 POSITION                                       TOTAL-FORCE (eV/Angst)
 -----------------------------------------------------------------------------------
      0.03696      0.03696      3.99473        -0.001429     -0.001429      0.000000
      0.01118      3.91786      0.00000        -0.014415      0.017541      0.000000
      0.00666      4.02023      3.99473         0.002573     -0.018027      0.000000
      3.91786      0.01118      0.00000         0.017541     -0.014415      0.000000
      4.02023      0.00666      3.99473        -0.018027      0.002573      0.000000
      4.00814      4.00814      0.00000        -0.001607     -0.001607      0.000000
      4.07135      4.07135      3.99473        -0.002578     -0.002578      0.000000
      1.57932      1.57932      0.00000         0.152780      0.152780      0.000000
      2.02977      2.02977      3.99473        -0.000966     -0.000966      0.000000
      1.96969      6.12011      0.00000        -0.010131      0.002320      0.000000
      2.07643      5.95625      3.99473        -0.002052     -0.004361      0.000000
      6.12011      1.96969      0.00000         0.002320     -0.010131      0.000000
      5.95625      2.07643      3.99473        -0.004361     -0.002052      0.000000
      6.00543      6.00543      0.00000         0.008076      0.008076      0.000000
      5.93077      5.93077      3.99473        -0.003443     -0.003443      0.000000
      2.06570     -0.01982      2.07725        -0.012542      0.002494     -0.014177
      2.06570     -0.01982      5.91221        -0.012542      0.002494      0.014177
      2.02273      3.98284      2.01061        -0.006901     -0.010117      0.007236
      2.02273      3.98284      5.97886        -0.006901     -0.010117     -0.007236
      5.99572     -0.00879      2.00452        -0.020235     -0.011113     -0.000322
      5.99572     -0.00879      5.98494        -0.020235     -0.011113      0.000322
      6.01097      4.01735      2.09063        -0.001689     -0.002038     -0.007489
      6.01097      4.01735      5.89883        -0.001689     -0.002038      0.007489
     -0.01982      2.06570      2.07725         0.002494     -0.012542     -0.014177
     -0.01982      2.06570      5.91221         0.002494     -0.012542      0.014177
     -0.00879      5.99572      2.00452        -0.011113     -0.020235     -0.000322
     -0.00879      5.99572      5.98494        -0.011113     -0.020235      0.000322
      3.98284      2.02273      2.01061        -0.010117     -0.006901      0.007236
      3.98284      2.02273      5.97886        -0.010117     -0.006901     -0.007236
      4.01735      6.01097      2.09063        -0.002038     -0.001689     -0.007489
      4.01735      6.01097      5.89883        -0.002038     -0.001689      0.007489
 -----------------------------------------------------------------------------------
    total drift:                               -0.000671     -0.000671     -0.000001
 d Force = 0.4526572E-03[ 0.416E-03, 0.489E-03]  d Energy = 0.4553279E-03-0.267E-05
 d Force = 0.1160127E+00[ 0.115E+00, 0.117E+00]  d Ewald  = 0.1160127E+00 0.417E-07


--------------------------------------------------------------------------------------------------------


    POTLOK:  cpu time    1.17: real time    1.17


--------------------------------------------------------------------------------------------------------


 NEB: the previous image is higher in energy: F
 NEB: the next image is higher in energy    : T
 NEB: only next energy greater

 NEB: Tangent
 ----------------------------------------------
     -0.01449     -0.01449      0.00000
      0.07649     -0.02809      0.00000
     -0.01464      0.06432      0.00000
     -0.02809      0.07649      0.00000
      0.06432     -0.01464      0.00000
      0.02184      0.02184      0.00000
      0.03419      0.03419      0.00000
     -0.67579     -0.67579      0.00000
      0.00840      0.00840      0.00000
      0.02323      0.04446      0.00000
     -0.01160      0.02782      0.00000
      0.04446      0.02323      0.00000
      0.02782     -0.01160      0.00000
      0.02461      0.02461      0.00000
      0.02637      0.02637      0.00000
      0.02563     -0.00601      0.07577
      0.02563     -0.00601     -0.07577
      0.03516      0.03798     -0.00578
      0.03516      0.03798      0.00578
      0.05160      0.02382      0.00171
      0.05160      0.02382     -0.00171
      0.01127      0.01700     -0.00635
      0.01127      0.01700      0.00635
     -0.00601      0.02563      0.07577
     -0.00601      0.02563     -0.07577
      0.02382      0.05160      0.00171
      0.02382      0.05160     -0.00171
      0.03798      0.03516     -0.00578
      0.03798      0.03516      0.00578
      0.01700      0.01127     -0.00635
      0.01700      0.01127      0.00635

 NEB: forces: par spring, perp REAL, dneb     0.002933    0.048369    0.000000
 NEB: distance to prev, next image, angle between     0.812125    0.811539  147.884826
 NEB: projections on to tangent (spring, REAL)    -0.002933   -0.226121

  FORCES: max atom, RMS     0.019191    0.008703
  FORCE total and by dimension    0.048457    0.013570
 Quasi-Newton relaxation of ions (Broydens 2nd method)
  g(Force)  = 0.311E-03   g(Stress)= 0.000E+00

 retain information from N=  1 steps
 eigenvalues of (default step * inverse Hessian matrix)
  average eigenvalue of G=   5.2467
 eigenvalue spectrum of G is  5.2467


--------------------------------------------------------------------------------------------------------


  
 reached required accuracy - stopping structural energy minimisation
     LOOP+:  cpu time   18.99: real time   19.00
    4ORBIT:  cpu time    0.00: real time    0.00

 total amount of memory used by VASP on root node  90106. kBytes
========================================================================

   base      :    30000. kBytes
   nonl-proj :     2213. kBytes
   fftplans  :    18956. kBytes
   grid      :    34840. kBytes
   one-center:       49. kBytes
   wavefun   :     4048. kBytes
 
  
  
 General timing and accounting informations for this job:
 ========================================================
  
                  Total CPU time used (sec):      474.275
                            User time (sec):      472.843
                          System time (sec):        1.432
                         Elapsed time (sec):      474.885
  
                   Maximum memory used (kb):           0.
                   Average memory used (kb):           0.
  
                          Minor page faults:       445441
                          Major page faults:           25
                 Voluntary context switches:         3187
