  32  32   0   0
  0.1652802E+02  0.8087052E-09  0.8087052E-09  0.8087052E-09  0.5000000E-15
  1.000000000000000E-004
  CAR 
 unknown system                          
     13.50771928     -4.71334179  301      8.12774584      1.00000000
     -4.713  0.0000E+00  0.0000E+00
     -4.653  0.0000E+00  0.0000E+00
     -4.592  0.0000E+00  0.0000E+00
     -4.531  0.0000E+00  0.0000E+00
     -4.470  0.0000E+00  0.0000E+00
     -4.410  0.0000E+00  0.0000E+00
     -4.349 -0.6853E-27 -0.4162E-28
     -4.288 -0.8572E-25 -0.5248E-26
     -4.227 -0.8959E-23 -0.5494E-24
     -4.167 -0.7772E-21 -0.4775E-22
     -4.106 -0.5594E-19 -0.3445E-20
     -4.045 -0.3340E-17 -0.2063E-18
     -3.984 -0.1654E-15 -0.1025E-16
     -3.924 -0.6790E-14 -0.4227E-15
     -3.863 -0.2237E-12 -0.1401E-13
     -3.802 -0.6293E-11 -0.3962E-12
     -3.742 -0.1462E-09 -0.9278E-11
     -3.681 -0.2808E-08 -0.1799E-09
     -3.620 -0.4454E-07 -0.2885E-08
     -3.559 -0.5823E-06 -0.3825E-07
     -3.499 -0.6267E-05 -0.4189E-06
     -3.438 -0.5539E-04 -0.3783E-05
     -3.377 -0.4006E-03 -0.2811E-04
     -3.316 -0.2360E-02 -0.1715E-03
     -3.256 -0.1125E-01 -0.8548E-03
     -3.195 -0.4290E-01 -0.3460E-02
     -3.134 -0.1283E+00 -0.1126E-01
     -3.073 -0.2892E+00 -0.2882E-01
     -3.013 -0.4406E+00 -0.5558E-01
     -2.952 -0.2471E+00 -0.7059E-01
     -2.891  0.8485E+00 -0.1906E-01
     -2.830  0.3161E+01  0.1729E+00
     -2.770  0.6092E+01  0.5429E+00
     -2.709  0.8126E+01  0.1037E+01
     -2.648  0.7953E+01  0.1520E+01
     -2.588  0.5690E+01  0.1865E+01
     -2.527  0.2768E+01  0.2033E+01
     -2.466  0.6186E+00  0.2071E+01
     -2.405 -0.3161E+00  0.2052E+01
     -2.345 -0.4291E+00  0.2026E+01
     -2.284 -0.2633E+00  0.2010E+01
     -2.223 -0.1145E+00  0.2003E+01
     -2.162 -0.5167E-01  0.2000E+01
     -2.102 -0.7627E-01  0.1995E+01
     -2.041 -0.2298E+00  0.1981E+01
     -1.980 -0.5978E+00  0.1945E+01
     -1.919 -0.1136E+01  0.1876E+01
     -1.859 -0.1263E+01  0.1799E+01
     -1.798  0.4372E+00  0.1825E+01
     -1.737  0.5535E+01  0.2162E+01
     -1.676  0.1382E+02  0.3001E+01
     -1.616  0.2193E+02  0.4333E+01
     -1.555  0.2505E+02  0.5855E+01
     -1.494  0.2109E+02  0.7136E+01
     -1.434  0.1268E+02  0.7906E+01
     -1.373  0.4678E+01  0.8190E+01
     -1.312  0.5845E-01  0.8194E+01
     -1.251 -0.1311E+01  0.8114E+01
     -1.191 -0.1071E+01  0.8049E+01
     -1.130 -0.5388E+00  0.8016E+01
     -1.069 -0.2067E+00  0.8004E+01
     -1.008 -0.9724E-01  0.7998E+01
     -0.948 -0.1634E+00  0.7988E+01
     -0.887 -0.4378E+00  0.7961E+01
     -0.826 -0.9412E+00  0.7904E+01
     -0.765 -0.1337E+01  0.7823E+01
     -0.705 -0.5032E+00  0.7792E+01
     -0.644  0.3246E+01  0.7990E+01
     -0.583  0.1060E+02  0.8633E+01
     -0.522  0.1933E+02  0.9808E+01
     -0.462  0.2473E+02  0.1131E+02
     -0.401  0.2327E+02  0.1272E+02
     -0.340  0.1593E+02  0.1369E+02
     -0.280  0.7271E+01  0.1413E+02
     -0.219  0.1293E+01  0.1421E+02
     -0.158 -0.1094E+01  0.1414E+02
     -0.097 -0.1242E+01  0.1407E+02
     -0.037 -0.7195E+00  0.1402E+02
      0.024 -0.3014E+00  0.1401E+02
      0.085 -0.1314E+00  0.1400E+02
      0.146 -0.1778E+00  0.1399E+02
      0.206 -0.4787E+00  0.1396E+02
      0.267 -0.1097E+01  0.1389E+02
      0.328 -0.1739E+01  0.1379E+02
      0.389 -0.1155E+01  0.1372E+02
      0.449  0.2856E+01  0.1389E+02
      0.510  0.1174E+02  0.1460E+02
      0.571  0.2346E+02  0.1603E+02
      0.632  0.3213E+02  0.1798E+02
      0.692  0.3223E+02  0.1994E+02
      0.753  0.2369E+02  0.2138E+02
      0.814  0.1196E+02  0.2210E+02
      0.874  0.2987E+01  0.2228E+02
      0.935 -0.1115E+01  0.2222E+02
      0.996 -0.1746E+01  0.2211E+02
      1.057 -0.1113E+01  0.2204E+02
      1.117 -0.4947E+00  0.2201E+02
      1.178 -0.2130E+00  0.2200E+02
      1.239 -0.2535E+00  0.2198E+02
      1.300 -0.6693E+00  0.2194E+02
      1.360 -0.1564E+01  0.2185E+02
      1.421 -0.2566E+01  0.2169E+02
      1.482 -0.1930E+01  0.2157E+02
      1.543  0.3593E+01  0.2179E+02
      1.603  0.1640E+02  0.2279E+02
      1.664  0.3391E+02  0.2485E+02
      1.725  0.4761E+02  0.2774E+02
      1.786  0.4884E+02  0.3071E+02
      1.846  0.3677E+02  0.3294E+02
      1.907  0.1919E+02  0.3411E+02
      1.968  0.5226E+01  0.3442E+02
      2.028 -0.1439E+01  0.3434E+02
      2.089 -0.2648E+01  0.3417E+02
      2.150 -0.1751E+01  0.3407E+02
      2.211 -0.7860E+00  0.3402E+02
      2.271 -0.2916E+00  0.3400E+02
      2.332 -0.1856E+00  0.3399E+02
      2.393 -0.3709E+00  0.3397E+02
      2.454 -0.8261E+00  0.3392E+02
      2.514 -0.1305E+01  0.3384E+02
      2.575 -0.8630E+00  0.3379E+02
      2.636  0.2152E+01  0.3392E+02
      2.697  0.8822E+01  0.3445E+02
      2.757  0.1761E+02  0.3552E+02
      2.818  0.2411E+02  0.3699E+02
      2.879  0.2417E+02  0.3846E+02
      2.940  0.1775E+02  0.3953E+02
      3.000  0.8954E+01  0.4008E+02
      3.061  0.2229E+01  0.4021E+02
      3.122 -0.8400E+00  0.4016E+02
      3.182 -0.1310E+01  0.4008E+02
      3.243 -0.8386E+00  0.4003E+02
      3.304 -0.3942E+00  0.4001E+02
      3.365 -0.2542E+00  0.3999E+02
      3.425 -0.4831E+00  0.3996E+02
      3.486 -0.1178E+01  0.3989E+02
      3.547 -0.2206E+01  0.3976E+02
      3.608 -0.2424E+01  0.3961E+02
      3.668  0.8924E+00  0.3966E+02
      3.729  0.1077E+02  0.4032E+02
      3.790  0.2690E+02  0.4195E+02
      3.851  0.4291E+02  0.4456E+02
      3.911  0.4952E+02  0.4757E+02
      3.972  0.4236E+02  0.5014E+02
      4.033  0.2616E+02  0.5173E+02
      4.094  0.1021E+02  0.5235E+02
      4.154  0.6369E+00  0.5239E+02
      4.215 -0.2462E+01  0.5224E+02
      4.276 -0.2168E+01  0.5210E+02
      4.336 -0.1153E+01  0.5203E+02
      4.397 -0.5288E+00  0.5200E+02
      4.458 -0.4900E+00  0.5197E+02
      4.519 -0.1098E+01  0.5191E+02
      4.579 -0.2389E+01  0.5176E+02
      4.640 -0.3626E+01  0.5154E+02
      4.701 -0.2122E+01  0.5141E+02
      4.762  0.6629E+01  0.5181E+02
      4.822  0.2547E+02  0.5336E+02
      4.883  0.5024E+02  0.5641E+02
      4.944  0.6915E+02  0.6061E+02
      5.005  0.7076E+02  0.6491E+02
      5.065  0.5410E+02  0.6820E+02
      5.126  0.2951E+02  0.6999E+02
      5.187  0.9305E+01  0.7055E+02
      5.248 -0.1060E+01  0.7049E+02
      5.308 -0.3551E+01  0.7027E+02
      5.369 -0.2617E+01  0.7011E+02
      5.430 -0.1276E+01  0.7004E+02
      5.490 -0.5123E+00  0.7001E+02
      5.551 -0.3202E+00  0.6999E+02
      5.612 -0.5493E+00  0.6995E+02
      5.673 -0.1055E+01  0.6989E+02
      5.733 -0.1322E+01  0.6981E+02
      5.794 -0.4864E-01  0.6981E+02
      5.855  0.4423E+01  0.7007E+02
      5.916  0.1233E+02  0.7082E+02
      5.976  0.2081E+02  0.7209E+02
      6.037  0.2503E+02  0.7361E+02
      6.098  0.2218E+02  0.7495E+02
      6.159  0.1418E+02  0.7582E+02
      6.219  0.5814E+01  0.7617E+02
      6.280  0.5669E+00  0.7620E+02
      6.341 -0.1242E+01  0.7613E+02
      6.402 -0.1158E+01  0.7606E+02
      6.462 -0.6339E+00  0.7602E+02
      6.523 -0.3173E+00  0.7600E+02
      6.584 -0.3696E+00  0.7598E+02
      6.644 -0.9005E+00  0.7592E+02
      6.705 -0.1974E+01  0.7580E+02
      6.766 -0.2969E+01  0.7562E+02
      6.827 -0.1614E+01  0.7552E+02
      6.887  0.5816E+01  0.7588E+02
      6.948  0.2143E+02  0.7718E+02
      7.009  0.4133E+02  0.7969E+02
      7.070  0.5552E+02  0.8306E+02
      7.130  0.5512E+02  0.8641E+02
      7.191  0.4046E+02  0.8887E+02
      7.252  0.2071E+02  0.9013E+02
      7.313  0.5537E+01  0.9046E+02
      7.373 -0.1575E+01  0.9037E+02
      7.434 -0.2857E+01  0.9019E+02
      7.495 -0.1910E+01  0.9008E+02
      7.556 -0.8995E+00  0.9002E+02
      7.616 -0.4479E+00  0.8999E+02
      7.677 -0.5808E+00  0.8996E+02
      7.738 -0.1299E+01  0.8988E+02
      7.798 -0.2376E+01  0.8974E+02
      7.859 -0.2518E+01  0.8958E+02
      7.920  0.1152E+01  0.8965E+02
      7.981  0.1156E+02  0.9036E+02
      8.041  0.2792E+02  0.9205E+02
      8.102  0.4373E+02  0.9471E+02
      8.163  0.5106E+02  0.9781E+02
      8.224  0.4786E+02  0.1007E+03
      8.284  0.3935E+02  0.1031E+03
      8.345  0.3130E+02  0.1050E+03
      8.406  0.2452E+02  0.1065E+03
      8.467  0.1709E+02  0.1075E+03
      8.527  0.9008E+01  0.1081E+03
      8.588  0.2547E+01  0.1082E+03
      8.649 -0.7533E+00  0.1082E+03
      8.710 -0.1438E+01  0.1081E+03
      8.770 -0.9945E+00  0.1080E+03
      8.831 -0.4717E+00  0.1080E+03
      8.892 -0.2135E+00  0.1080E+03
      8.952 -0.2528E+00  0.1080E+03
      9.013 -0.6619E+00  0.1079E+03
      9.074 -0.1551E+01  0.1078E+03
      9.135 -0.2558E+01  0.1077E+03
      9.195 -0.1961E+01  0.1076E+03
      9.256  0.3478E+01  0.1078E+03
      9.317  0.1619E+02  0.1088E+03
      9.378  0.3369E+02  0.1108E+03
      9.438  0.4750E+02  0.1137E+03
      9.499  0.4892E+02  0.1167E+03
      9.560  0.3698E+02  0.1189E+03
      9.621  0.1938E+02  0.1201E+03
      9.681  0.5266E+01  0.1204E+03
      9.742 -0.1731E+01  0.1203E+03
      9.803 -0.3593E+01  0.1201E+03
      9.864 -0.3726E+01  0.1199E+03
      9.924 -0.3424E+01  0.1197E+03
      9.985 -0.8868E+00  0.1196E+03
     10.046  0.7255E+01  0.1200E+03
     10.106  0.2207E+02  0.1214E+03
     10.167  0.3871E+02  0.1237E+03
     10.228  0.4814E+02  0.1267E+03
     10.289  0.4505E+02  0.1294E+03
     10.349  0.3379E+02  0.1314E+03
     10.410  0.2416E+02  0.1329E+03
     10.471  0.2150E+02  0.1342E+03
     10.532  0.2250E+02  0.1356E+03
     10.592  0.2085E+02  0.1369E+03
     10.653  0.1454E+02  0.1377E+03
     10.714  0.6646E+01  0.1381E+03
     10.775  0.9170E+00  0.1382E+03
     10.835 -0.1622E+01  0.1381E+03
     10.896 -0.2084E+01  0.1380E+03
     10.957 -0.1445E+01  0.1379E+03
     11.018  0.5838E+00  0.1379E+03
     11.078  0.4740E+01  0.1382E+03
     11.139  0.1044E+02  0.1388E+03
     11.200  0.1514E+02  0.1398E+03
     11.260  0.1614E+02  0.1407E+03
     11.321  0.1341E+02  0.1416E+03
     11.382  0.9729E+01  0.1421E+03
     11.443  0.7785E+01  0.1426E+03
     11.503  0.7593E+01  0.1431E+03
     11.564  0.7236E+01  0.1435E+03
     11.625  0.5472E+01  0.1439E+03
     11.686  0.2876E+01  0.1440E+03
     11.746  0.7503E+00  0.1441E+03
     11.807 -0.2736E+00  0.1441E+03
     11.868 -0.4463E+00  0.1440E+03
     11.929 -0.2902E+00  0.1440E+03
     11.989 -0.1285E+00  0.1440E+03
     12.050 -0.4292E-01  0.1440E+03
     12.111 -0.1125E-01  0.1440E+03
     12.172 -0.2360E-02  0.1440E+03
     12.232 -0.4006E-03  0.1440E+03
     12.293 -0.5539E-04  0.1440E+03
     12.354 -0.6267E-05  0.1440E+03
     12.414 -0.5823E-06  0.1440E+03
     12.475 -0.4454E-07  0.1440E+03
     12.536 -0.2808E-08  0.1440E+03
     12.597 -0.1462E-09  0.1440E+03
     12.657 -0.6288E-11  0.1440E+03
     12.718 -0.2267E-12  0.1440E+03
     12.779 -0.7312E-14  0.1440E+03
     12.840  0.0000E+00  0.1440E+03
     12.900  0.0000E+00  0.1440E+03
     12.961  0.0000E+00  0.1440E+03
     13.022  0.0000E+00  0.1440E+03
     13.083  0.0000E+00  0.1440E+03
     13.143  0.0000E+00  0.1440E+03
     13.204  0.0000E+00  0.1440E+03
     13.265  0.0000E+00  0.1440E+03
     13.326  0.0000E+00  0.1440E+03
     13.386  0.0000E+00  0.1440E+03
     13.447  0.0000E+00  0.1440E+03
     13.508  0.0000E+00  0.1440E+03
