   32   32    1    1
  0.1652794E+02  0.8087040E-09  0.8087040E-09  0.8087040E-09  0.5000000E-15
  1.000000000000000E-004
  CAR 
 unknown system                          
   96    1   96
 
  0.2500000E+00  0.2500000E+00  0.2500000E+00  0.1000000E+01
   1       -2.713326
   2       -1.589224
   3       -1.589224
   4       -1.589224
   5       -0.473962
   6       -0.473962
   7       -0.473962
   8        0.631789
   9        0.631789
  10        0.631789
  11        0.633214
  12        1.729907
  13        1.729907
  14        1.729907
  15        1.729907
  16        1.729907
  17        1.729907
  18        2.818544
  19        2.818544
  20        2.818544
  21        3.862345
  22        3.862345
  23        3.862345
  24        3.897023
  25        3.897023
  26        3.897023
  27        4.928429
  28        4.928429
  29        4.928429
  30        4.928429
  31        4.928429
  32        4.928429
  33        4.991321
  34        4.991321
  35        4.991321
  36        6.013010
  37        6.013010
  38        6.013010
  39        7.059965
  40        7.059965
  41        7.059965
  42        7.059965
  43        7.059965
  44        7.059965
  45        7.122347
  46        8.123673
  47        8.123673
  48        8.123673
  49        8.123673
  50        8.123673
  51        8.123673
  52        8.360540
  53        8.360540
  54        8.360540
  55        9.444287
  56        9.444287
  57        9.444287
  58        9.444287
  59        9.444287
  60        9.444287
  61       10.199600
  62       10.199600
  63       10.199600
  64       10.223068
  65       10.223068
  66       10.223068
  67       10.519354
  68       10.519354
  69       10.519354
  70       11.210411
  71       11.210411
  72       11.210411
  73       11.608774
  74       11.608774
  75       11.608774
  76       11.608774
  77       11.608774
  78       11.608774
  79       12.564309
  80       12.564309
  81       12.564309
  82       12.564309
  83       12.564309
  84       12.564309
  85       13.289156
  86       13.289158
  87       13.289161
  88       13.571610
  89       13.571616
  90       13.571647
  91       13.936425
  92       13.936996
  93       13.940635
  94       14.610155
  95       14.617820
  96       14.642799
