Processors received = 1
script running on host compute-0-0.local
PBS_NODEFILE
compute-0-0
 running on    1 nodes
 each image running on    1 nodes
 distr:  one band on    1 nodes,    1 groups
 vasp.5.2.2 15Apr09 complex 
 POSCAR found type information on POSCAR  Mg Al
 01/POSCAR found :  2 types and   31 ions

 ----------------------------------------------------------------------------- 
|                                                                             |
|  ADVICE TO THIS USER RUNNING 'VASP/VAMP'   (HEAR YOUR MASTER'S VOICE ...):  |
|                                                                             |
|      You have a (more or less) 'large supercell' and for larger cells       |
|      it might be more efficient to use real space projection operators      |
|      So try LREAL= Auto  in the INCAR   file.                               |
|      Mind: If you want to do a very accurate calculations keep the          |
|      reciprocal projection scheme          (i.e. LREAL=.FALSE.)             |
|                                                                             |
 ----------------------------------------------------------------------------- 

 LDA part: xc-table for Pade appr. of Perdew
 POSCAR found type information on POSCAR  Mg Al
 00/POSCAR found :  2 types and   31 ions
 POSCAR found type information on POSCAR  Mg Al
 02/POSCAR found :  2 types and   31 ions
 POSCAR, INCAR and KPOINTS ok, starting setup
 FFT: planning ...(           4 )
 reading WAVECAR
 entering main loop
       N       E                     dE             d eps       ncg     rms          rms(c)
RMM:   1     0.304128438116E+03    0.30413E+03   -0.16889E+04    62   0.643E+02
RMM:   2    -0.348625856869E+01   -0.30761E+03   -0.30219E+03    62   0.136E+02
RMM:   3    -0.662616323729E+02   -0.62775E+02   -0.66486E+02    62   0.449E+01
RMM:   4    -0.833020684299E+02   -0.17040E+02   -0.16027E+02    62   0.259E+01
RMM:   5    -0.905145964068E+02   -0.72125E+01   -0.58953E+01    62   0.143E+01
RMM:   6    -0.939676946385E+02   -0.34531E+01   -0.28617E+01    62   0.908E+00
RMM:   7    -0.958114760144E+02   -0.18438E+01   -0.16026E+01    62   0.607E+00
RMM:   8    -0.968441750620E+02   -0.10327E+01   -0.93829E+00    62   0.436E+00
RMM:   9    -0.981178084267E+02   -0.12736E+01   -0.12360E+01   156   0.308E+00
RMM:  10    -0.982853324112E+02   -0.16752E+00   -0.13988E+00   149   0.687E-01
RMM:  11    -0.982974137164E+02   -0.12081E-01   -0.61488E-02   112   0.129E-01
RMM:  12    -0.982979552474E+02   -0.54153E-03   -0.37919E-03    93   0.358E-02    0.651E+00
RMM:  13    -0.972316863728E+02    0.10663E+01   -0.34657E+00   126   0.240E+00    0.393E+00
RMM:  14    -0.969749942454E+02    0.25669E+00   -0.31470E-01   129   0.997E-01    0.223E+00
RMM:  15    -0.968622399894E+02    0.11275E+00   -0.14144E-01   124   0.799E-01    0.430E-01
RMM:  16    -0.968556246895E+02    0.66153E-02   -0.18452E-02   135   0.221E-01    0.161E-01
RMM:  17    -0.968548712112E+02    0.75348E-03   -0.62251E-03   135   0.116E-01    0.651E-02
RMM:  18    -0.968546732434E+02    0.19797E-03   -0.13918E-03   117   0.540E-02    0.224E-02
RMM:  19    -0.968546801446E+02   -0.69012E-05   -0.71056E-05    83   0.191E-02
   1 F= -.96854680E+02 E0= -.96825342E+02  d E =-.968547E+02
 BRION: g(F)=  0.545E+00 g(S)=  0.000E+00
 bond charge predicted
       N       E                     dE             d eps       ncg     rms          rms(c)
RMM:   1    -0.973788571117E+02   -0.52418E+00   -0.39934E+00   124   0.530E+00    0.771E-01
RMM:   2    -0.973242227565E+02    0.54634E-01   -0.16874E-01   124   0.852E-01    0.246E-01
RMM:   3    -0.973213976432E+02    0.28251E-02   -0.19299E-02   130   0.254E-01    0.118E-01
RMM:   4    -0.973211276262E+02    0.27002E-03   -0.18803E-03   128   0.801E-02    0.672E-02
RMM:   5    -0.973210945339E+02    0.33092E-04   -0.49416E-04   104   0.422E-02
   2 F= -.97321095E+02 E0= -.97314430E+02  d E =-.466414E+00
 BRION: g(F)=  0.293E+00 g(S)=  0.000E+00 retain N=  1 mean eig= 2.50
 eig:   2.501
 bond charge predicted
       N       E                     dE             d eps       ncg     rms          rms(c)
RMM:   1    -0.979505311985E+02   -0.62940E+00   -0.13258E+01   124   0.975E+00    0.106E+00
RMM:   2    -0.978323826248E+02    0.11815E+00   -0.44424E-01   125   0.144E+00    0.473E-01
RMM:   3    -0.978153959021E+02    0.16987E-01   -0.78177E-02   126   0.508E-01    0.210E-01
RMM:   4    -0.978144407422E+02    0.95516E-03   -0.70411E-03   132   0.162E-01    0.114E-01
RMM:   5    -0.978144156905E+02    0.25052E-04   -0.16606E-03   129   0.700E-02    0.493E-02
RMM:   6    -0.978144248613E+02   -0.91708E-05   -0.57696E-04   105   0.371E-02
   3 F= -.97814425E+02 E0= -.97847899E+02  d E =-.493330E+00
 BRION: g(F)=  0.634E-01 g(S)=  0.000E+00 retain N=  2 mean eig= 5.33
 eig:   3.730  6.924
 bond charge predicted
       N       E                     dE             d eps       ncg     rms          rms(c)
RMM:   1    -0.978983709522E+02   -0.83955E-01   -0.86970E-01   124   0.261E+00    0.273E-01
RMM:   2    -0.978910400916E+02    0.73309E-02   -0.35911E-02   127   0.380E-01    0.109E-01
RMM:   3    -0.978905475755E+02    0.49252E-03   -0.33341E-03   130   0.105E-01    0.593E-02
RMM:   4    -0.978904928884E+02    0.54687E-04   -0.39205E-04    97   0.382E-02
   4 F= -.97890493E+02 E0= -.97923436E+02  d E =-.760680E-01
 BRION: g(F)=  0.342E-01 g(S)=  0.000E+00 retain N=  2 mean eig= 3.53
 eig:   3.534  3.534
 bond charge predicted
       N       E                     dE             d eps       ncg     rms          rms(c)
RMM:   1    -0.979982345372E+02   -0.10769E+00   -0.27517E+00   124   0.471E+00    0.493E-01
RMM:   2    -0.979739042870E+02    0.24330E-01   -0.11919E-01   127   0.689E-01    0.198E-01
RMM:   3    -0.979719964585E+02    0.19078E-02   -0.11338E-02   129   0.193E-01    0.107E-01
RMM:   4    -0.979718748406E+02    0.12162E-03   -0.14576E-03   126   0.693E-02    0.581E-02
RMM:   5    -0.979718838900E+02   -0.90494E-05   -0.28016E-04    93   0.322E-02
   5 F= -.97971884E+02 E0= -.98004611E+02  d E =-.813910E-01
 BRION: g(F)=  0.100E-01 g(S)=  0.000E+00 retain N=  1 mean eig= 4.33
 eig:   4.329
 bond charge predicted
       N       E                     dE             d eps       ncg     rms          rms(c)
RMM:   1    -0.979892476113E+02   -0.17373E-01   -0.22859E-01   124   0.141E+00    0.149E-01
RMM:   2    -0.979873499391E+02    0.18977E-02   -0.96700E-03   126   0.202E-01    0.598E-02
RMM:   3    -0.979871774434E+02    0.17250E-03   -0.93470E-04   115   0.566E-02    0.329E-02
RMM:   4    -0.979871708486E+02    0.65948E-05   -0.14052E-04    75   0.241E-02
   6 F= -.97987171E+02 E0= -.98020821E+02  d E =-.152870E-01
 BRION: g(F)=  0.556E-02 g(S)=  0.000E+00 retain N=  2 mean eig= 5.87
 eig:   5.871  5.871
 reached required accuracy - stopping structural energy minimisation
