Processors received = 12
script running on host compute-1-26.local
PBS_NODEFILE
compute-1-26
compute-1-26
compute-1-26
compute-1-26
compute-1-26
compute-1-26
compute-1-26
compute-1-26
compute-1-26
compute-1-26
compute-1-26
compute-1-26
 running on   12 nodes
 distr:  one band on    1 nodes,   12 groups
 vasp.5.2.2 15Apr09 complex 
 POSCAR found type information on POSCAR  Al Cu
 POSCAR found :  2 types and   31 ions

 ----------------------------------------------------------------------------- 
|                                                                             |
|  ADVICE TO THIS USER RUNNING 'VASP/VAMP'   (HEAR YOUR MASTER'S VOICE ...):  |
|                                                                             |
|      You have a (more or less) 'large supercell' and for larger cells       |
|      it might be more efficient to use real space projection operators      |
|      So try LREAL= Auto  in the INCAR   file.                               |
|      Mind: If you want to do a very accurate calculations keep the          |
|      reciprocal projection scheme          (i.e. LREAL=.FALSE.)             |
|                                                                             |
 ----------------------------------------------------------------------------- 

 LDA part: xc-table for Pade appr. of Perdew
 POSCAR, INCAR and KPOINTS ok, starting setup
 FFT: planning ...(           1 )
 reading WAVECAR
 entering main loop
       N       E                     dE             d eps       ncg     rms          rms(c)
RMM:   1     0.302313818435E+03    0.30231E+03   -0.18358E+04    72   0.612E+02
RMM:   2    -0.210444674953E+02   -0.32336E+03   -0.31562E+03    72   0.135E+02
RMM:   3    -0.728858785977E+02   -0.51841E+02   -0.53834E+02    72   0.466E+01
RMM:   4    -0.890252295049E+02   -0.16139E+02   -0.12416E+02    72   0.438E+01
RMM:   5    -0.968568198300E+02   -0.78316E+01   -0.61506E+01    72   0.231E+01
RMM:   6    -0.100701477064E+03   -0.38447E+01   -0.31390E+01    72   0.224E+01
RMM:   7    -0.102769450744E+03   -0.20680E+01   -0.18345E+01    72   0.124E+01
RMM:   8    -0.104005972551E+03   -0.12365E+01   -0.10957E+01    72   0.117E+01
RMM:   9    -0.105881040356E+03   -0.18751E+01   -0.18100E+01   191   0.696E+00
RMM:  10    -0.106049377043E+03   -0.16834E+00   -0.12056E+00   157   0.768E-01
RMM:  11    -0.106066513903E+03   -0.17137E-01   -0.91608E-02   136   0.178E-01
RMM:  12    -0.106067601590E+03   -0.10877E-02   -0.73231E-03   121   0.643E-02    0.296E+01
RMM:  13    -0.140892157767E+03   -0.34825E+02   -0.51857E+02   204   0.636E+01    0.244E+01
RMM:  14    -0.108352620389E+03    0.32540E+02   -0.81884E+01   144   0.248E+01    0.137E+01
RMM:  15    -0.100780997018E+03    0.75716E+01   -0.28276E+01   144   0.176E+01    0.403E+00
RMM:  16    -0.100777583182E+03    0.34138E-02   -0.63649E+00   144   0.704E+00    0.356E+00
RMM:  17    -0.100740858650E+03    0.36725E-01   -0.76469E-01   157   0.131E+00    0.293E+00
RMM:  18    -0.100652233611E+03    0.88625E-01   -0.24685E+00   144   0.473E+00    0.196E+00
RMM:  19    -0.100583679360E+03    0.68554E-01   -0.97525E-02   148   0.111E+00    0.111E+00
RMM:  20    -0.100559211586E+03    0.24468E-01   -0.13095E-01   145   0.106E+00    0.102E-01
RMM:  21    -0.100559664382E+03   -0.45280E-03   -0.56676E-03   136   0.111E-01    0.163E-01
RMM:  22    -0.100559679762E+03   -0.15380E-04   -0.31423E-04   101   0.617E-02
   1 F= -.10055968E+03 E0= -.10055787E+03  d E =-.100560E+03
 curvature:   0.00 expect dE= 0.000E+00 dE for cont linesearch  0.000E+00
 trial: gam= 0.00000 g(F)=  0.759E-01 g(S)=  0.000E+00 ort = 0.000E+00 (trialstep = 0.100E+01)
 search vector abs. value=  0.759E-01
 bond charge predicted
       N       E                     dE             d eps       ncg     rms          rms(c)
RMM:   1    -0.100628785180E+03   -0.69121E-01   -0.60791E-01   144   0.205E+00    0.272E-01
RMM:   2    -0.100623379736E+03    0.54054E-02   -0.26616E-02   144   0.474E-01    0.203E-01
RMM:   3    -0.100622381153E+03    0.99858E-03   -0.85638E-03   144   0.276E-01    0.127E-01
RMM:   4    -0.100621991450E+03    0.38970E-03   -0.16734E-03   118   0.137E-01    0.394E-02
RMM:   5    -0.100621961845E+03    0.29605E-04   -0.17202E-04    95   0.467E-02
   2 F= -.10062196E+03 E0= -.10061994E+03  d E =-.622821E-01
 trial-energy change:   -0.062282  1 .order   -0.063278   -0.075924   -0.050631
 step:   3.0017(harm=  3.0017)  dis= 0.05378  next Energy=  -100.673631 (dE=-0.114E+00)
 bond charge predicted
       N       E                     dE             d eps       ncg     rms          rms(c)
RMM:   1    -0.100704164381E+03   -0.82173E-01   -0.25075E+00   144   0.412E+00    0.540E-01
RMM:   2    -0.100676693125E+03    0.27471E-01   -0.91031E-02   144   0.737E-01    0.312E-01
RMM:   3    -0.100673539394E+03    0.31537E-02   -0.20788E-02   150   0.418E-01    0.217E-01
RMM:   4    -0.100672489431E+03    0.10500E-02   -0.60507E-03   141   0.250E-01    0.947E-02
RMM:   5    -0.100672307808E+03    0.18162E-03   -0.87304E-04   123   0.967E-02    0.308E-02
RMM:   6    -0.100672312227E+03   -0.44197E-05   -0.61436E-05    92   0.242E-02
   3 F= -.10067231E+03 E0= -.10067603E+03  d E =-.112632E+00
 curvature:  -1.50 expect dE=-0.268E-01 dE for cont linesearch -0.961E-05
 trial: gam= 0.24475 g(F)=  0.179E-01 g(S)=  0.000E+00 ort =-0.697E-03 (trialstep = 0.140E+01)
 search vector abs. value=  0.221E-01
 bond charge predicted
       N       E                     dE             d eps       ncg     rms          rms(c)
RMM:   1    -0.100695575934E+03   -0.23268E-01   -0.28566E-01   144   0.138E+00    0.183E-01
RMM:   2    -0.100692498161E+03    0.30778E-02   -0.10438E-02   144   0.242E-01    0.914E-02
RMM:   3    -0.100692296530E+03    0.20163E-03   -0.20808E-03   140   0.126E-01    0.673E-02
RMM:   4    -0.100692193262E+03    0.10327E-03   -0.59386E-04   102   0.843E-02    0.333E-02
RMM:   5    -0.100692179619E+03    0.13643E-04   -0.11083E-04    91   0.447E-02
   4 F= -.10069218E+03 E0= -.10069837E+03  d E =-.198674E-01
 trial-energy change:   -0.019867  1 .order   -0.019802   -0.024806   -0.014799
 step:   3.4711(harm=  3.4711)  dis= 0.02334  next Energy=  -100.703056 (dE=-0.307E-01)
 bond charge predicted
       N       E                     dE             d eps       ncg     rms          rms(c)
RMM:   1    -0.100708869453E+03   -0.16676E-01   -0.62267E-01   144   0.205E+00    0.257E-01
RMM:   2    -0.100702904118E+03    0.59653E-02   -0.21038E-02   144   0.350E-01    0.130E-01
RMM:   3    -0.100702514325E+03    0.38979E-03   -0.41338E-03   150   0.181E-01    0.948E-02
RMM:   4    -0.100702320027E+03    0.19430E-03   -0.12424E-03   116   0.115E-01    0.494E-02
RMM:   5    -0.100702288434E+03    0.31593E-04   -0.19743E-04    93   0.544E-02
   5 F= -.10070229E+03 E0= -.10071029E+03  d E =-.299762E-01
 curvature:  -2.16 expect dE=-0.138E-01 dE for cont linesearch -0.809E-04
 trial: gam= 0.35787 g(F)=  0.639E-02 g(S)=  0.000E+00 ort =-0.909E-03 (trialstep = 0.181E+01)
 search vector abs. value=  0.857E-02
 reached required accuracy - stopping structural energy minimisation
