  31  31   0   0
  0.1706110E+02  0.8087040E-09  0.8087040E-09  0.8087040E-09  0.5000000E-15
  1.000000000000000E-004
  CAR 
 unknown system                          
     11.48530300     -5.48916953  301      7.73506163      1.00000000
     -5.489  0.0000E+00  0.0000E+00
     -5.433  0.0000E+00  0.0000E+00
     -5.376  0.0000E+00  0.0000E+00
     -5.319  0.0000E+00  0.0000E+00
     -5.263  0.0000E+00  0.0000E+00
     -5.206  0.0000E+00  0.0000E+00
     -5.150  0.0000E+00  0.0000E+00
     -5.093 -0.4902E-28 -0.2773E-29
     -5.037 -0.4031E-26 -0.2309E-27
     -4.980 -0.2849E-24 -0.1635E-25
     -4.923 -0.1713E-22 -0.9854E-24
     -4.867 -0.8755E-21 -0.5052E-22
     -4.810 -0.3805E-19 -0.2204E-20
     -4.754 -0.1406E-17 -0.8174E-19
     -4.697 -0.4412E-16 -0.2578E-17
     -4.640 -0.1135E-14 -0.6682E-16
     -4.584 -0.2577E-13 -0.1525E-14
     -4.527 -0.4931E-12 -0.2943E-13
     -4.471 -0.8001E-11 -0.4822E-12
     -4.414 -0.1100E-09 -0.6704E-11
     -4.358 -0.1278E-08 -0.7904E-10
     -4.301 -0.1256E-07 -0.7896E-09
     -4.244 -0.1040E-06 -0.6677E-08
     -4.188 -0.7254E-06 -0.4772E-07
     -4.131 -0.4242E-05 -0.2877E-06
     -4.075 -0.2072E-04 -0.1460E-05
     -4.018 -0.8395E-04 -0.6210E-05
     -3.961 -0.2793E-03 -0.2201E-04
     -3.905 -0.7493E-03 -0.6441E-04
     -3.848 -0.1563E-02 -0.1529E-03
     -3.792 -0.2310E-02 -0.2835E-03
     -3.735 -0.1550E-02 -0.3712E-03
     -3.679  0.3099E-02 -0.1959E-03
     -3.622  0.1333E-01  0.5583E-03
     -3.565  0.2751E-01  0.2115E-02
     -3.509  0.3985E-01  0.4370E-02
     -3.452  0.4369E-01  0.6842E-02
     -3.396  0.3672E-01  0.8919E-02
     -3.339  0.2304E-01  0.1022E-01
     -3.282  0.9619E-02  0.1077E-01
     -3.226  0.1122E-02  0.1083E-01
     -3.169 -0.2076E-02  0.1071E-01
     -3.113 -0.2151E-02  0.1059E-01
     -3.056 -0.1287E-02  0.1052E-01
     -3.000 -0.5679E-03  0.1049E-01
     -2.943 -0.1977E-03  0.1048E-01
     -2.886 -0.5586E-04  0.1047E-01
     -2.830 -0.1301E-04  0.1047E-01
     -2.773 -0.2520E-05  0.1047E-01
     -2.717 -0.4082E-06  0.1047E-01
     -2.660 -0.5552E-07  0.1047E-01
     -2.604 -0.6361E-08  0.1047E-01
     -2.547 -0.6149E-09  0.1047E-01
     -2.490 -0.5027E-10  0.1047E-01
     -2.434 -0.3881E-11  0.1047E-01
     -2.377 -0.6920E-11  0.1047E-01
     -2.321 -0.9440E-10  0.1047E-01
     -2.264 -0.1125E-08  0.1047E-01
     -2.207 -0.1138E-07  0.1047E-01
     -2.151 -0.9747E-07  0.1047E-01
     -2.094 -0.7071E-06  0.1047E-01
     -2.038 -0.4337E-05  0.1047E-01
     -1.981 -0.2246E-04  0.1047E-01
     -1.925 -0.9786E-04  0.1046E-01
     -1.868 -0.3572E-03  0.1044E-01
     -1.811 -0.1083E-02  0.1038E-01
     -1.755 -0.2688E-02  0.1023E-01
     -1.698 -0.5275E-02  0.9932E-02
     -1.642 -0.7503E-02  0.9508E-02
     -1.585 -0.5127E-02  0.9217E-02
     -1.528  0.8971E-02  0.9725E-02
     -1.472  0.4107E-01  0.1205E-01
     -1.415  0.8980E-01  0.1713E-01
     -1.359  0.1418E+00  0.2515E-01
     -1.302  0.1762E+00  0.3512E-01
     -1.246  0.1777E+00  0.4518E-01
     -1.189  0.1474E+00  0.5352E-01
     -1.132  0.1018E+00  0.5928E-01
     -1.076  0.6206E-01  0.6279E-01
     -1.019  0.4056E-01  0.6509E-01
     -0.963  0.3606E-01  0.6713E-01
     -0.906  0.3784E-01  0.6927E-01
     -0.849  0.3544E-01  0.7127E-01
     -0.793  0.2587E-01  0.7274E-01
     -0.736  0.1332E-01  0.7349E-01
     -0.680  0.3426E-02  0.7368E-01
     -0.623 -0.1438E-02  0.7360E-01
     -0.567 -0.2397E-02  0.7347E-01
     -0.510 -0.1693E-02  0.7337E-01
     -0.453 -0.8377E-03  0.7332E-01
     -0.397 -0.3210E-03  0.7331E-01
     -0.340 -0.9898E-04  0.7330E-01
     -0.284 -0.2502E-04  0.7330E-01
     -0.227 -0.5244E-05  0.7330E-01
     -0.171 -0.9174E-06  0.7330E-01
     -0.114 -0.1365E-06  0.7330E-01
     -0.057 -0.3543E-07  0.7330E-01
     -0.001 -0.1554E-06  0.7330E-01
      0.056 -0.1061E-05  0.7330E-01
      0.112 -0.6190E-05  0.7330E-01
      0.169 -0.3051E-04  0.7330E-01
      0.226 -0.1268E-03  0.7329E-01
      0.282 -0.4440E-03  0.7326E-01
      0.339 -0.1304E-02  0.7319E-01
      0.395 -0.3185E-02  0.7301E-01
      0.452 -0.6338E-02  0.7265E-01
      0.508 -0.9714E-02  0.7210E-01
      0.565 -0.9263E-02  0.7158E-01
      0.622  0.3254E-02  0.7176E-01
      0.678  0.3849E-01  0.7394E-01
      0.735  0.1027E+00  0.7975E-01
      0.791  0.1880E+00  0.9039E-01
      0.848  0.2694E+00  0.1056E+00
      0.905  0.3157E+00  0.1235E+00
      0.961  0.3097E+00  0.1410E+00
      1.018  0.2595E+00  0.1557E+00
      1.074  0.1891E+00  0.1664E+00
      1.131  0.1212E+00  0.1733E+00
      1.187  0.6882E-01  0.1772E+00
      1.244  0.3759E-01  0.1793E+00
      1.301  0.2726E-01  0.1808E+00
      1.357  0.3077E-01  0.1826E+00
      1.414  0.3629E-01  0.1846E+00
      1.470  0.3447E-01  0.1866E+00
      1.527  0.2407E-01  0.1879E+00
      1.584  0.1058E-01  0.1885E+00
      1.640  0.4180E-03  0.1886E+00
      1.697 -0.2751E-02  0.1884E+00
      1.753  0.2082E-02  0.1885E+00
      1.810  0.1397E-01  0.1893E+00
      1.866  0.2915E-01  0.1910E+00
      1.923  0.4095E-01  0.1933E+00
      1.980  0.4315E-01  0.1957E+00
      2.036  0.3469E-01  0.1977E+00
      2.093  0.2059E-01  0.1988E+00
      2.149  0.7792E-02  0.1993E+00
      2.206  0.2601E-03  0.1993E+00
      2.263 -0.2238E-02  0.1992E+00
      2.319 -0.2037E-02  0.1991E+00
      2.376 -0.1191E-02  0.1990E+00
      2.432 -0.6811E-03  0.1990E+00
      2.489 -0.8360E-03  0.1989E+00
      2.545 -0.1914E-02  0.1988E+00
      2.602 -0.4122E-02  0.1986E+00
      2.659 -0.6727E-02  0.1982E+00
      2.715 -0.6537E-02  0.1978E+00
      2.772  0.2569E-02  0.1980E+00
      2.828  0.2666E-01  0.1995E+00
      2.885  0.6565E-01  0.2032E+00
      2.941  0.1097E+00  0.2094E+00
      2.998  0.1440E+00  0.2175E+00
      3.055  0.1590E+00  0.2265E+00
      3.111  0.1558E+00  0.2354E+00
      3.168  0.1419E+00  0.2434E+00
      3.224  0.1235E+00  0.2504E+00
      3.281  0.1040E+00  0.2563E+00
      3.338  0.8581E-01  0.2611E+00
      3.394  0.7168E-01  0.2652E+00
      3.451  0.6301E-01  0.2687E+00
      3.507  0.5845E-01  0.2720E+00
      3.564  0.5463E-01  0.2751E+00
      3.620  0.4832E-01  0.2779E+00
      3.677  0.3947E-01  0.2801E+00
      3.734  0.3278E-01  0.2820E+00
      3.790  0.3482E-01  0.2839E+00
      3.847  0.4809E-01  0.2866E+00
      3.903  0.6841E-01  0.2905E+00
      3.960  0.8865E-01  0.2955E+00
      4.017  0.1038E+00  0.3014E+00
      4.073  0.1112E+00  0.3077E+00
      4.130  0.1077E+00  0.3138E+00
      4.186  0.9056E-01  0.3189E+00
      4.243  0.6312E-01  0.3225E+00
      4.299  0.3598E-01  0.3245E+00
      4.356  0.2055E-01  0.3257E+00
      4.413  0.1998E-01  0.3268E+00
      4.469  0.2745E-01  0.3284E+00
      4.526  0.3392E-01  0.3303E+00
      4.582  0.3799E-01  0.3324E+00
      4.639  0.4749E-01  0.3351E+00
      4.696  0.6983E-01  0.3391E+00
      4.752  0.1003E+00  0.3448E+00
      4.809  0.1221E+00  0.3517E+00
      4.865  0.1191E+00  0.3584E+00
      4.922  0.9066E-01  0.3635E+00
      4.978  0.5118E-01  0.3664E+00
      5.035  0.1797E-01  0.3674E+00
      5.092 -0.5185E-03  0.3674E+00
      5.148 -0.6171E-02  0.3671E+00
      5.205 -0.5298E-02  0.3668E+00
      5.261 -0.2947E-02  0.3666E+00
      5.318 -0.1247E-02  0.3665E+00
      5.374 -0.4227E-03  0.3665E+00
      5.431 -0.1196E-03  0.3665E+00
      5.488 -0.3969E-04  0.3665E+00
      5.544 -0.6424E-04  0.3665E+00
      5.601 -0.2290E-03  0.3665E+00
      5.657 -0.7220E-03  0.3664E+00
      5.714 -0.1831E-02  0.3663E+00
      5.771 -0.3560E-02  0.3661E+00
      5.827 -0.4695E-02  0.3659E+00
      5.884 -0.1833E-02  0.3658E+00
      5.940  0.9795E-02  0.3663E+00
      5.997  0.3230E-01  0.3681E+00
      6.053  0.6024E-01  0.3716E+00
      6.110  0.8105E-01  0.3761E+00
      6.167  0.8377E-01  0.3809E+00
      6.223  0.6895E-01  0.3848E+00
      6.280  0.4834E-01  0.3875E+00
      6.336  0.3383E-01  0.3894E+00
      6.393  0.2797E-01  0.3910E+00
      6.450  0.2730E-01  0.3926E+00
      6.506  0.3355E-01  0.3945E+00
      6.563  0.5763E-01  0.3977E+00
      6.619  0.1085E+00  0.4039E+00
      6.676  0.1786E+00  0.4140E+00
      6.732  0.2427E+00  0.4277E+00
      6.789  0.2754E+00  0.4433E+00
      6.846  0.2675E+00  0.4584E+00
      6.902  0.2279E+00  0.4713E+00
      6.959  0.1735E+00  0.4811E+00
      7.015  0.1224E+00  0.4881E+00
      7.072  0.9097E-01  0.4932E+00
      7.129  0.8729E-01  0.4981E+00
      7.185  0.1032E+00  0.5040E+00
      7.242  0.1169E+00  0.5106E+00
      7.298  0.1095E+00  0.5168E+00
      7.355  0.7919E-01  0.5213E+00
      7.411  0.4024E-01  0.5235E+00
      7.468  0.9755E-02  0.5241E+00
      7.525 -0.3442E-02  0.5239E+00
      7.581 -0.5978E-05  0.5239E+00
      7.638  0.1454E-01  0.5247E+00
      7.694  0.3420E-01  0.5267E+00
      7.751  0.5553E-01  0.5298E+00
      7.808  0.7908E-01  0.5343E+00
      7.864  0.1075E+00  0.5404E+00
      7.921  0.1397E+00  0.5483E+00
      7.977  0.1667E+00  0.5577E+00
      8.034  0.1746E+00  0.5676E+00
      8.090  0.1548E+00  0.5763E+00
      8.147  0.1116E+00  0.5827E+00
      8.204  0.6061E-01  0.5861E+00
      8.260  0.1781E-01  0.5871E+00
      8.317 -0.8819E-02  0.5866E+00
      8.373 -0.1864E-01  0.5855E+00
      8.430 -0.1087E-01  0.5849E+00
      8.486  0.1944E-01  0.5860E+00
      8.543  0.7553E-01  0.5903E+00
      8.600  0.1480E+00  0.5987E+00
      8.656  0.2127E+00  0.6107E+00
      8.713  0.2457E+00  0.6246E+00
      8.769  0.2435E+00  0.6384E+00
      8.826  0.2251E+00  0.6511E+00
      8.883  0.2117E+00  0.6631E+00
      8.939  0.2061E+00  0.6748E+00
      8.996  0.1950E+00  0.6858E+00
      9.052  0.1701E+00  0.6954E+00
      9.109  0.1390E+00  0.7033E+00
      9.165  0.1168E+00  0.7099E+00
      9.222  0.1104E+00  0.7161E+00
      9.279  0.1151E+00  0.7226E+00
      9.335  0.1221E+00  0.7296E+00
      9.392  0.1238E+00  0.7366E+00
      9.448  0.1153E+00  0.7431E+00
      9.505  0.9463E-01  0.7484E+00
      9.562  0.6503E-01  0.7521E+00
      9.618  0.3453E-01  0.7541E+00
      9.675  0.1131E-01  0.7547E+00
      9.731 -0.1159E-02  0.7547E+00
      9.788 -0.4867E-02  0.7544E+00
      9.844 -0.4111E-02  0.7541E+00
      9.901 -0.2324E-02  0.7540E+00
      9.958 -0.1009E-02  0.7540E+00
     10.014 -0.3520E-03  0.7539E+00
     10.071 -0.1009E-03  0.7539E+00
     10.127 -0.2402E-04  0.7539E+00
     10.184 -0.4783E-05  0.7539E+00
     10.241 -0.7999E-06  0.7539E+00
     10.297 -0.1127E-06  0.7539E+00
     10.354 -0.1341E-07  0.7539E+00
     10.410 -0.1349E-08  0.7539E+00
     10.467 -0.1150E-09  0.7539E+00
     10.523 -0.8299E-11  0.7539E+00
     10.580 -0.5082E-12  0.7539E+00
     10.637 -0.2638E-13  0.7539E+00
     10.693 -0.1192E-14  0.7539E+00
     10.750 -0.4109E-16  0.7539E+00
     10.806  0.0000E+00  0.7539E+00
     10.863  0.0000E+00  0.7539E+00
     10.919  0.0000E+00  0.7539E+00
     10.976  0.0000E+00  0.7539E+00
     11.033  0.0000E+00  0.7539E+00
     11.089  0.0000E+00  0.7539E+00
     11.146  0.0000E+00  0.7539E+00
     11.202  0.0000E+00  0.7539E+00
     11.259  0.0000E+00  0.7539E+00
     11.316  0.0000E+00  0.7539E+00
     11.372  0.0000E+00  0.7539E+00
     11.429  0.0000E+00  0.7539E+00
     11.485  0.0000E+00  0.7539E+00
