   31   31  191    1
  0.1706110E+02  0.8087040E-09  0.8087040E-09  0.8087040E-09  0.5000000E-15
  1.000000000000000E-004
  CAR 
 unknown system                          
  101    1   72
 
  0.0000000E+00  0.0000000E+00  0.0000000E+00  0.1000000E+01
   1       -3.489170
   2       -1.391297
   3       -1.309103
   4       -1.305943
   5       -1.283170
   6       -1.172545
   7       -0.918506
   8        0.744873
   9        0.843360
  10        0.855092
  11        0.878350
  12        0.896230
  13        0.897963
  14        0.911244
  15        0.970847
  16        1.084421
  17        1.084759
  18        1.394167
  19        1.933189
  20        2.958455
  21        2.961821
  22        3.010913
  23        3.124408
  24        3.181553
  25        3.272511
  26        3.430265
  27        3.609658
  28        3.886523
  29        3.977023
  30        4.123980
  31        4.144050
  32        4.498251
  33        4.766240
  34        4.804716
  35        4.840746
  36        6.111747
  37        6.120916
  38        6.419509
  39        6.684703
  40        6.707826
  41        6.709687
  42        6.758100
  43        6.764412
  44        6.802045
  45        6.899619
  46        6.928659
  47        6.949276
  48        7.185225
  49        7.236224
  50        7.258172
  51        7.723533
  52        7.866090
  53        7.959426
  54        7.993484
  55        8.054487
  56        8.080813
  57        8.611485
  58        8.639237
  59        8.677931
  60        8.698226
  61        8.718462
  62        8.727665
  63        8.889839
  64        8.907169
  65        8.958201
  66        8.979372
  67        9.002870
  68        9.169136
  69        9.229806
  70        9.327428
  71        9.418699
  72        9.485303
