 vasp.5.2.2 15Apr09 complex 
 executed on             LinuxIFC date 2017.01.11  13:32:01
 running on   12 nodes
 distr:  one band on    1 nodes,   12 groups


--------------------------------------------------------------------------------------------------------


 INCAR:
 POTCAR:   PAW_PBE Al 04Jan2001                   
 POTCAR:   PAW_PBE Cu 05Jan2001                   
 POTCAR:   PAW_PBE Al 04Jan2001                   
   VRHFIN =Al: s2p1                                                             
   LEXCH  = PE                                                                  
   EATOM  =    53.5387 eV,    3.9350 Ry                                         
                                                                                
   TITEL  = PAW_PBE Al 04Jan2001                                                
   LULTRA =        F    use ultrasoft PP ?                                      
   IUNSCR =        1    unscreen: 0-lin 1-nonlin 2-no                           
   RPACOR =    1.500    partial core radius                                     
   POMASS =   26.982; ZVAL   =    3.000    mass and valenz                      
   RCORE  =    1.900    outmost cutoff radius                                   
   RWIGS  =    2.650; RWIGS  =    1.402    wigner-seitz radius (au A)           
   ENMAX  =  240.300; ENMIN  =  180.225 eV                                      
   ICORE  =        2    local potential                                         
   LCOR   =        T    correct aug charges                                     
   LPAW   =        T    paw PP                                                  
   EAUG   =  291.052                                                            
   DEXC   =    -.041                                                            
   RMAX   =    2.974    core radius for proj-oper                               
   RAUG   =    1.300    factor for augmentation sphere                          
   RDEP   =    1.966    radius for radial grids                                 
   QCUT   =   -4.203; QGAM   =    8.405    optimization parameters              
                                                                                
   Description                                                                  
     l     E      TYP  RCUT    TYP  RCUT                                        
     0   .000     23  1.900                                                     
     0   .000     23  1.900                                                     
     1   .000     23  1.900                                                     
     1  1.000     23  1.900                                                     
     2   .000      7  1.900                                                     
  local pseudopotential read in
  partial core-charges read in
  atomic valenz-charges read in
  non local Contribution for L=           0  read in
    real space projection operators read in
  non local Contribution for L=           0  read in
    real space projection operators read in
  non local Contribution for L=           1  read in
    real space projection operators read in
  non local Contribution for L=           1  read in
    real space projection operators read in
    PAW grid and wavefunctions read in
 
   number of l-projection  operators is LMAX  =           4
   number of lm-projection operators is LMMAX =           8
 
 POTCAR:   PAW_PBE Cu 05Jan2001                   
   VRHFIN =Cu: d10 p1                                                           
   LEXCH  = PE                                                                  
   EATOM  =  1390.9800 eV,  102.2341 Ry                                         
                                                                                
   TITEL  = PAW_PBE Cu 05Jan2001                                                
   LULTRA =        F    use ultrasoft PP ?                                      
   IUNSCR =        1    unscreen: 0-lin 1-nonlin 2-no                           
   RPACOR =    2.000    partial core radius                                     
   POMASS =   63.546; ZVAL   =   11.000    mass and valenz                      
   RCORE  =    2.300    outmost cutoff radius                                   
   RWIGS  =    2.480; RWIGS  =    1.312    wigner-seitz radius (au A)           
   ENMAX  =  273.214; ENMIN  =  204.910 eV                                      
   RCLOC  =    1.712    cutoff for local pot                                    
   LCOR   =        T    correct aug charges                                     
   LPAW   =        T    paw PP                                                  
   EAUG   =  516.456                                                            
   DEXC   =    -.008                                                            
   RMAX   =    2.789    core radius for proj-oper                               
   RAUG   =    1.300    factor for augmentation sphere                          
   RDEP   =    2.302    radius for radial grids                                 
   QCUT   =   -4.481; QGAM   =    8.962    optimization parameters              
                                                                                
   Description                                                                  
     l     E      TYP  RCUT    TYP  RCUT                                        
     2   .000     23  2.300                                                     
     2   .000     23  2.300                                                     
     0   .000     23  2.300                                                     
     0   .000     23  2.300                                                     
     1  -.200     23  2.300                                                     
     1   .000     23  2.300                                                     
     3   .000      7   .000                                                     
  local pseudopotential read in
  partial core-charges read in
  atomic valenz-charges read in
  non local Contribution for L=           2  read in
    real space projection operators read in
  non local Contribution for L=           2  read in
    real space projection operators read in
  non local Contribution for L=           0  read in
    real space projection operators read in
  non local Contribution for L=           0  read in
    real space projection operators read in
  non local Contribution for L=           1  read in
    real space projection operators read in
  non local Contribution for L=           1  read in
    real space projection operators read in
    PAW grid and wavefunctions read in
 
   number of l-projection  operators is LMAX  =           6
   number of lm-projection operators is LMMAX =          18
 

 ----------------------------------------------------------------------------- 
|                                                                             |
|  ADVICE TO THIS USER RUNNING 'VASP/VAMP'   (HEAR YOUR MASTER'S VOICE ...):  |
|                                                                             |
|      You have a (more or less) 'large supercell' and for larger cells       |
|      it might be more efficient to use real space projection operators      |
|      So try LREAL= Auto  in the INCAR   file.                               |
|      Mind: If you want to do a very accurate calculations keep the          |
|      reciprocal projection scheme          (i.e. LREAL=.FALSE.)             |
|                                                                             |
 ----------------------------------------------------------------------------- 

 PAW_PBE Al 04Jan2001                   :
 energy of atom  1       EATOM=  -53.5387
 kinetic energy error for atom=    0.0011 (will be added to EATOM!!)
 PAW_PBE Cu 05Jan2001                   :
 energy of atom  2       EATOM=-1390.9800
 kinetic energy error for atom=    0.0323 (will be added to EATOM!!)
 
 
 POSCAR: Al30 Cu1                                
  positions in direct lattice
  velocities in cartesian coordinates
 exchange correlation table for  LEXCH =        8
   RHO(1)=    0.500       N(1)  =     2000
   RHO(2)=  100.500       N(2)  =     4000

 VTST: version 2.03d, (02/18/09)

 CHAIN: initializing optimizer
 
 OPT: Using VASP Conjugate-Gradient optimizer
 CHAIN: Read ICHAIN            0
 


--------------------------------------------------------------------------------------------------------


 ion  position               nearest neighbor table
   1  0.000  0.000  0.000-   2 2.86   3 2.86   4 2.86   6 2.86   7 2.86  10 2.86  11 2.86  14 2.86
                            17 2.86  18 2.86  20 2.86  26 2.86
   2  0.250  0.000  0.250-   1 2.86   3 2.86   4 2.86   5 2.86  10 2.86  11 2.86  15 2.86  16 2.86
                            19 2.86  25 2.86  31 2.86
   3  0.250  0.250  0.000-   1 2.86   2 2.86   4 2.86   5 2.86   8 2.86   9 2.86  12 2.86  17 2.86
                            18 2.86  22 2.86  24 2.86  31 2.86
   4  0.000  0.250  0.250-   1 2.86   2 2.86   3 2.86   6 2.86   7 2.86   8 2.86   9 2.86  13 2.86
                            16 2.86  21 2.86  23 2.86
   5  0.500  0.000  0.000-   2 2.86   3 2.86   6 2.86   7 2.86  10 2.86  14 2.86  15 2.86  17 2.86
                            20 2.86  22 2.86  30 2.86  31 2.86
   6  0.750  0.000  0.250-   1 2.86   4 2.86   5 2.86   7 2.86  11 2.86  14 2.86  15 2.86  16 2.86
                            19 2.86  21 2.86  29 2.86  31 2.86
   7  0.750  0.250  0.000-   1 2.86   4 2.86   5 2.86   6 2.86   8 2.86  12 2.86  13 2.86  18 2.86
                            20 2.86  22 2.86  28 2.86  31 2.86
   8  0.000  0.500  0.000-   3 2.86   4 2.86   7 2.86   9 2.86  10 2.86  11 2.86  13 2.86  14 2.86
                            18 2.86  24 2.86  26 2.86  28 2.86
   9  0.250  0.500  0.250-   3 2.86   4 2.86   8 2.86  10 2.86  11 2.86  12 2.86  15 2.86  23 2.86
                            25 2.86  27 2.86  31 2.86
  10  0.250  0.750  0.000-   1 2.86   2 2.86   5 2.86   8 2.86   9 2.86  11 2.86  12 2.86  15 2.86
                            17 2.86  24 2.86  26 2.86  30 2.86
  11  0.000  0.750  0.250-   1 2.86   2 2.86   6 2.86   8 2.86   9 2.86  10 2.86  13 2.86  14 2.86
                            16 2.86  23 2.86  25 2.86  29 2.86
  12  0.500  0.500  0.000-   3 2.86   7 2.86   9 2.86  10 2.86  13 2.86  14 2.86  15 2.86  22 2.86
                            24 2.86  28 2.86  30 2.86  31 2.86
  13  0.750  0.500  0.250-   4 2.86   7 2.86   8 2.86  11 2.86  12 2.86  14 2.86  15 2.86  21 2.86
                            23 2.86  27 2.86  29 2.86  31 2.86
  14  0.750  0.750  0.000-   1 2.86   5 2.86   6 2.86   8 2.86  11 2.86  12 2.86  13 2.86  15 2.86
                            20 2.86  26 2.86  28 2.86  30 2.86
  15  0.500  0.750  0.250-   2 2.86   5 2.86   6 2.86   9 2.86  10 2.86  12 2.86  13 2.86  14 2.86
                            19 2.86  25 2.86  27 2.86  29 2.86
  16  0.000  0.000  0.500-   2 2.86   4 2.86   6 2.86  11 2.86  17 2.86  18 2.86  20 2.86  21 2.86
                            25 2.86  26 2.86  29 2.86
  17  0.250  0.000  0.750-   1 2.86   3 2.86   5 2.86  10 2.86  16 2.86  18 2.86  19 2.86  22 2.86
                            25 2.86  26 2.86  30 2.86
  18  0.000  0.250  0.750-   1 2.86   3 2.86   7 2.86   8 2.86  16 2.86  17 2.86  20 2.86  21 2.86
                            23 2.86  24 2.86  28 2.86
  19  0.500  0.000  0.500-   2 2.86   6 2.86  15 2.86  17 2.86  20 2.86  21 2.86  22 2.86  25 2.86
                            29 2.86  30 2.86  31 2.86
  20  0.750  0.000  0.750-   1 2.86   5 2.86   7 2.86  14 2.86  16 2.86  18 2.86  19 2.86  21 2.86
                            22 2.86  26 2.86  29 2.86  30 2.86
  21  0.750  0.250  0.500-   4 2.86   6 2.86  13 2.86  16 2.86  18 2.86  19 2.86  20 2.86  22 2.86
                            23 2.86  27 2.86  28 2.86  31 2.86
  22  0.500  0.250  0.750-   3 2.86   5 2.86   7 2.86  12 2.86  17 2.86  19 2.86  20 2.86  21 2.86
                            24 2.86  27 2.86  28 2.86
  23  0.000  0.500  0.500-   4 2.86   9 2.86  11 2.86  13 2.86  18 2.86  21 2.86  24 2.86  25 2.86
                            26 2.86  28 2.86  29 2.86
  24  0.250  0.500  0.750-   3 2.86   8 2.86  10 2.86  12 2.86  18 2.86  22 2.86  23 2.86  25 2.86
                            26 2.86  27 2.86  30 2.86
  25  0.250  0.750  0.500-   2 2.86   9 2.86  11 2.86  15 2.86  16 2.86  17 2.86  19 2.86  23 2.86
                            24 2.86  26 2.86  27 2.86  30 2.86
  26  0.000  0.750  0.750-   1 2.86   8 2.86  10 2.86  14 2.86  16 2.86  17 2.86  20 2.86  23 2.86
                            24 2.86  25 2.86  28 2.86  29 2.86
  27  0.500  0.500  0.500-   9 2.86  13 2.86  15 2.86  21 2.86  22 2.86  24 2.86  25 2.86  28 2.86
                            29 2.86  30 2.86  31 2.86
  28  0.750  0.500  0.750-   7 2.86   8 2.86  12 2.86  14 2.86  18 2.86  21 2.86  22 2.86  23 2.86
                            26 2.86  27 2.86  29 2.86  30 2.86
  29  0.750  0.750  0.500-   6 2.86  11 2.86  13 2.86  15 2.86  16 2.86  19 2.86  20 2.86  23 2.86
                            26 2.86  27 2.86  28 2.86  30 2.86
  30  0.500  0.750  0.750-   5 2.86  10 2.86  12 2.86  14 2.86  17 2.86  19 2.86  20 2.86  24 2.86
                            25 2.86  27 2.86  28 2.86  29 2.86
  31  0.500  0.250  0.250-   2 2.86   3 2.86   5 2.86   6 2.86   7 2.86   9 2.86  12 2.86  13 2.86
                            19 2.86  21 2.86  27 2.86
 
  LATTYP: Found a simple cubic cell.
 ALAT       =     8.0870400000
  
  Lattice vectors:
  
 A1 = (   8.0870400000,   0.0000000000,   0.0000000000)
 A2 = (   0.0000000000,   8.0870400000,   0.0000000000)
 A3 = (   0.0000000000,   0.0000000000,   8.0870400000)
 Subroutine PRICEL returns:
 Original cell was already a primitive cell.
 

Analysis of symmetry for initial positions (statically):

 Routine SETGRP: Setting up the symmetry group for a 
 simple cubic supercell.


 Subroutine GETGRP returns: Found  4 space group operations
 (whereof  1 operations were pure point group operations)
 out of a pool of 48 trial point group operations.


The static configuration has the point symmetry C_1 .
 The point group associated with its full space group is C_2v.

Analysis of symmetry for dynamics (positions and initial velocities):

 Subroutine DYNSYM returns: Found  4 space group operations
 (whereof  1 operations were pure point group operations)
 out of a pool of  4 trial space group operations
 (whereof  1 operations were pure point group operations)
 and found also     1 'primitive' translations


The dynamic configuration has the point symmetry C_1 .
 The point group associated with its full space group is C_2v.
 
 
 KPOINTS: Automatic kpoint scheme                 

Automatic generation of k-mesh.
 
 Subroutine IBZKPT returns following result:
 ===========================================
 
 Found      1 irreducible k-points:
 
 Following reciprocal coordinates:
            Coordinates               Weight
  0.000000  0.000000  0.000000      1.000000
 
 Following cartesian coordinates:
            Coordinates               Weight
  0.000000  0.000000  0.000000      1.000000
 


--------------------------------------------------------------------------------------------------------




 Dimension of arrays:
   k-points           NKPTS =      1   k-points in BZ     NKDIM =      1   number of bands    NBANDS=     72
   number of dos      NEDOS =    301   number of ions     NIONS =     31
   non local maximal  LDIM  =      6   non local SUM 2l+1 LMDIM =     18
   total plane-waves  NPLWV = 110592
   max r-space proj   IRMAX =      1   max aug-charges    IRDMAX=   8337
   dimension x,y,z NGX =    48 NGY =   48 NGZ =   48
   dimension x,y,z NGXF=    96 NGYF=   96 NGZF=   96
   support grid    NGXF=    96 NGYF=   96 NGZF=   96
   ions per type =              30   1
 NGX,Y,Z   is equivalent  to a cutoff of   9.87,  9.87,  9.87 a.u.
 NGXF,Y,Z  is equivalent  to a cutoff of  19.73, 19.73, 19.73 a.u.


 I would recommend the setting:
   dimension x,y,z NGX =    46 NGY =   46 NGZ =   46
 SYSTEM =  unknown system                          
 POSCAR =  Al30 Cu1                                

 Startparameter for this run:
   NWRITE =      2    write-flag & timer
   PREC   = accura    medium, high low
   ISTART =      0    job   : 0-new  1-cont  2-samecut
   ICHARG =      2    charge: 1-file 2-atom 10-const
   ISPIN  =      1    spin polarized calculation?
   LNONCOLLINEAR =      F non collinear calculations
   LSORBIT =      F    spin-orbit coupling
   INIWAV =      1    electr: 0-lowe 1-rand  2-diag
   LASPH  =      F    aspherical Exc in radial PAW
   METAGGA=      F    non-selfconsistent MetaGGA calc.

 Electronic Relaxation 1
   ENCUT  =  300.0 eV  22.05 Ry    4.70 a.u.  11.42 11.42 11.42*2*pi/ulx,y,z
   ENINI  =  300.0     initial cutoff
   ENAUG  =  516.5 eV  augmentation charge cutoff
   NELM   =     60;   NELMIN=  2; NELMDL=-12     # of ELM steps 
   EDIFF  = 0.1E-03   stopping-criterion for ELM
   LREAL  =      F    real-space projection
   LCOMPAT=      F    compatible to vasp.4.4
   LREAL_COMPAT= F    compatible to vasp.4.5.1-3
   GGA_COMPAT  = T    GGA compatible to vasp.4.4-vasp.4.6
   LMAXPAW     = -100 max onsite density
   LMAXMIX     =    2 max onsite mixed and CHGCAR
   VOSKOWN=      0    Vosko Wilk Nusair interpolation
   ROPT   =    0.00000   0.00000
 Ionic relaxation
   EDIFFG = 0.5E-01   stopping-criterion for IOM
   NSW    =    191    number of steps for IOM
   NBLOCK =      1;   KBLOCK =    191    inner block; outer block 
   IBRION =      2    ionic relax: 0-MD 1-quasi-New 2-CG
   NFREE  =      1    steps in history (QN), initial steepest desc. (CG)
   ISIF   =      2    stress and relaxation
   IWAVPR =     11    prediction:  0-non 1-charg 2-wave 3-comb
   ISYM   =      2    0-nonsym 1-usesym 2-fastsym
   LCORR  =      T    Harris-Foulkes like correction to forces

   POTIM  = 0.5000    time-step for ionic-motion
   TEIN   =    0.0    initial temperature
   TEBEG  =    0.0;   TEEND  =   0.0 temperature during run
   SMASS  =  -3.00    Nose mass-parameter (am)
   estimated Nose-frequenzy (Omega)   =  0.10E-29 period in steps =****** mass=  -0.149E-26a.u.
   NPACO  =    256;   APACO  = 16.0  distance and # of slots for P.C.
   PSTRESS=    0.0 pullay stress

  Mass of Ions in am
   POMASS =  26.98 63.55
  Ionic Valenz
   ZVAL   =   3.00 11.00
  Atomic Wigner-Seitz radii
   RWIGS  =  -1.00 -1.00
   NELECT =     101.0000    total number of electrons
   NUPDOWN=      -1.0000    fix difference up-down

 DOS related values:
   EMIN   =  10.00;   EMAX   =-10.00  energy-range for DOS
   EFERMI =   0.00
   ISMEAR =     1;   SIGMA  =   0.20  broadening in eV -4-tet -1-fermi 0-gaus

 Electronic relaxation 2 (details)
   IALGO  =     48    algorithm
   LDIAG  =      T    sub-space diagonalisation
   IMIX   =      4    mixing-type and parameters
     AMIX     =   0.40;   BMIX     =  1.00
     AMIX_MAG =   1.60;   BMIX_MAG =  1.00
     AMIN     =   0.10
     WC   =   100.;   INIMIX=   1;  MIXPRE=   1

 Intra band minimization:
   WEIMIN = 0.0010     energy-eigenvalue tresh-hold
   EBREAK =  0.38E-06  absolut break condition
   DEPER  =   0.30     relativ break condition  

   TIME   =   0.40     timestep for ELM

  volume/ion in A,a.u.               =      17.06       115.13
  Fermi-wavevector in a.u.,A,eV,Ry     =   0.942741  1.781522 12.092320  0.888760
  Thomas-Fermi vector in A             =   2.070380
 
 Write flags
   LWAVE  =      F    write WAVECAR
   LCHARG =      F    write CHGCAR
   LVTOT  =      F    write LOCPOT, local potential
   LELF   =      F    write electronic localiz. function (ELF)
   LORBIT =      0    0 simple, 1 ext, 2 COOP (PROOUT)


 Dipole corrections
   LMONO  =      F    monopole corrections only (constant potential shift)
   LDIPOL =      F    correct potential (dipole corrections)
   IDIPOL =      0    1-x, 2-y, 3-z, 4-all directions 
   EPSILON=  1.0000000 bulk dielectric constant

 Exchange correlation treatment:
   GGA     =    --    GGA type
   LEXCH   =     8    internal setting for exchange type
   VOSKOWN=      0    Vosko Wilk Nusair interpolation
   LHFCALC =     F    Hartree Fock is set to
   LHFONE  =     F    Hartree Fock one center treatment
   AEXX    =    0.0000 exact exchange contribution

 Linear response parameters
   LEPSILON=     F    determine dielectric tensor
   LRPA    =     F    only Hartree local field effects (RPA)
   LNABLA  =     F    use nabla operator in PAW spheres
   LVEL    =     F    velocity operator in full k-point grid
   LINTERFAST=   F  fast interpolation
   KINTER  =     0    interpolate to denser k-point grid
   CSHIFT  =0.1000    complex shift for real part using Kramers Kronig
   OMEGAMAX=  -1.0    maximum frequency

 Orbital magnetization related:
   ORBITALMAG=     F  switch on orbital magnetization
   LCHIMAG   =     F  perturbation theory with respect to B field



--------------------------------------------------------------------------------------------------------


 conjugate gradient relaxation of ions
 charge density and potential will be updated during run
 non-spin polarized calculation
 RMM-DIIS sequential band-by-band
 perform sub-space diagonalisation
    before iterative eigenvector-optimisation
 modified Broyden-mixing scheme, WC =      100.0
 initial mixing is a Kerker type mixing with AMIX =  0.4000 and BMIX =      1.0000
 Hartree-type preconditioning will be used
 using additional bands           21
 reciprocal scheme for non local part
 use partial core corrections
 calculate Harris-corrections to forces 
   (improved forces if not selfconsistent)
 use gradient corrections 
 use of overlap-Matrix (Vanderbilt PP)
 Methfessel and Paxton  Order N= 1 SIGMA  =   0.20


--------------------------------------------------------------------------------------------------------


  energy-cutoff  :      300.00
  volume of cell :      528.89
      direct lattice vectors                 reciprocal lattice vectors
     8.087040000  0.000000000  0.000000000     0.123654638  0.000000000  0.000000000
     0.000000000  8.087040000  0.000000000     0.000000000  0.123654638  0.000000000
     0.000000000  0.000000000  8.087040000     0.000000000  0.000000000  0.123654638

  length of vectors
     8.087040000  8.087040000  8.087040000     0.123654638  0.123654638  0.123654638


 
 k-points in units of 2pi/SCALE and weight: Automatic kpoint scheme                 
   0.00000000  0.00000000  0.00000000       1.000
 
 k-points in reciprocal lattice and weights: Automatic kpoint scheme                 
   0.00000000  0.00000000  0.00000000       1.000
 
 position of ions in fractional coordinates (direct lattice) 
   0.00000000  0.00000000  0.00000000
   0.25000000  0.00000000  0.25000000
   0.25000000  0.25000000  0.00000000
   0.00000000  0.25000000  0.25000000
   0.50000000  0.00000000  0.00000000
   0.75000000  0.00000000  0.25000000
   0.75000000  0.25000000  0.00000000
   0.00000000  0.50000000  0.00000000
   0.25000000  0.50000000  0.25000000
   0.25000000  0.75000000  0.00000000
   0.00000000  0.75000000  0.25000000
   0.50000000  0.50000000  0.00000000
   0.75000000  0.50000000  0.25000000
   0.75000000  0.75000000  0.00000000
   0.50000000  0.75000000  0.25000000
   0.00000000  0.00000000  0.50000000
   0.25000000  0.00000000  0.75000000
   0.00000000  0.25000000  0.75000000
   0.50000000  0.00000000  0.50000000
   0.75000000  0.00000000  0.75000000
   0.75000000  0.25000000  0.50000000
   0.50000000  0.25000000  0.75000000
   0.00000000  0.50000000  0.50000000
   0.25000000  0.50000000  0.75000000
   0.25000000  0.75000000  0.50000000
   0.00000000  0.75000000  0.75000000
   0.50000000  0.50000000  0.50000000
   0.75000000  0.50000000  0.75000000
   0.75000000  0.75000000  0.50000000
   0.50000000  0.75000000  0.75000000
   0.50000000  0.25000000  0.25000000
 
 position of ions in cartesian coordinates  (Angst):
   0.00000000  0.00000000  0.00000000
   2.02176000  0.00000000  2.02176000
   2.02176000  2.02176000  0.00000000
   0.00000000  2.02176000  2.02176000
   4.04352000  0.00000000  0.00000000
   6.06528000  0.00000000  2.02176000
   6.06528000  2.02176000  0.00000000
   0.00000000  4.04352000  0.00000000
   2.02176000  4.04352000  2.02176000
   2.02176000  6.06528000  0.00000000
   0.00000000  6.06528000  2.02176000
   4.04352000  4.04352000  0.00000000
   6.06528000  4.04352000  2.02176000
   6.06528000  6.06528000  0.00000000
   4.04352000  6.06528000  2.02176000
   0.00000000  0.00000000  4.04352000
   2.02176000  0.00000000  6.06528000
   0.00000000  2.02176000  6.06528000
   4.04352000  0.00000000  4.04352000
   6.06528000  0.00000000  6.06528000
   6.06528000  2.02176000  4.04352000
   4.04352000  2.02176000  6.06528000
   0.00000000  4.04352000  4.04352000
   2.02176000  4.04352000  6.06528000
   2.02176000  6.06528000  4.04352000
   0.00000000  6.06528000  6.06528000
   4.04352000  4.04352000  4.04352000
   6.06528000  4.04352000  6.06528000
   6.06528000  6.06528000  4.04352000
   4.04352000  6.06528000  6.06528000
   4.04352000  2.02176000  2.02176000
 


--------------------------------------------------------------------------------------------------------


 k-point  1 :  0.00000.00000.0000  plane waves:    6235

 maximum and minimum number of plane-waves per node :    6235   6235

 maximum number of plane-waves:    6235
 maximal index in each direction: 
   IXMAX= 11   IYMAX= 11   IZMAX= 11
   IXMIN=-11   IYMIN=-11   IZMIN=-11

 NGX is ok and might be reduce to  46
 NGY is ok and might be reduce to  46
 NGZ is ok and might be reduce to  46

 serial   3D FFT for wavefunctions
 parallel 3D FFT for charge:
    minimum data exchange during FFTs selected (reduces bandwidth)


 total amount of memory used by VASP on root node  60607. kBytes
========================================================================

   base      :    30000. kBytes
   nonl-proj :     4892. kBytes
   fftplans  :     2983. kBytes
   grid      :    21626. kBytes
   one-center:      482. kBytes
   wavefun   :      624. kBytes
 
 Broyden mixing: mesh for mixing (old mesh)
   NGX = 23   NGY = 23   NGZ = 23
  (NGX  = 96   NGY  = 96   NGZ  = 96)
  gives a total of  12167 points

 initial charge density was supplied:
 charge density of overlapping atoms calculated
 number of electron  101.0000000 magnetization 
 keeping initial charge density in first step


--------------------------------------------------------------------------------------------------------


 Maximum index for augmentation-charges          531 (set IRDMAX)


--------------------------------------------------------------------------------------------------------


 First call to EWALD:  gamma=   0.219
 Maximum number of real-space cells 3x 3x 3
 Maximum number of reciprocal cells 3x 3x 3

    FEWALD:  cpu time    0.01: real time    0.01
   RESPFUN:  cpu time    0.00: real time    0.00


----------------------------------------- Iteration    1(   1)  ---------------------------------------


    POTLOK:  cpu time    0.15: real time    0.15
    SETDIJ:  cpu time    0.02: real time    0.02
    EDDIAG:  cpu time    0.15: real time    0.15
  RMM-DIIS:  cpu time    0.35: real time    0.35
    ORTHCH:  cpu time    0.01: real time    0.01
       DOS:  cpu time    0.00: real time    0.00
    --------------------------------------------
      LOOP:  cpu time    0.68: real time    0.68

 eigenvalue-minimisations  :    72
 total energy-change (2. order) : 0.3023138E+03  (-0.1835794E+04)
 number of electron  101.0000000 magnetization 
 augmentation part   101.0000000 magnetization 

 Free energy of the ion-electron system (eV)
  ---------------------------------------------------
  alpha Z        PSCENC =        15.76595319
  Ewald energy   TEWEN  =     -2790.72364793
  -1/2 Hartree   DENC   =      -760.60153274
  -exchange  EXHF       =         0.00000000
  -V(xc)+E(xc)   XCENC  =      -745.21804782
  PAW double counting   =      2148.67993976    -1334.04649801
  entropy T*S    EENTRO =         0.01335145
  eigenvalues    EBANDS =       771.36789571
  atomic energy  EATOM  =      2997.07640482
  ---------------------------------------------------
  free energy    TOTEN  =       302.31381843 eV

  energy without entropy =      302.30046698  energy(sigma->0) =      302.30936795


--------------------------------------------------------------------------------------------------------




----------------------------------------- Iteration    1(   2)  ---------------------------------------


    EDDIAG:  cpu time    0.15: real time    0.15
  RMM-DIIS:  cpu time    0.34: real time    0.34
    ORTHCH:  cpu time    0.01: real time    0.01
       DOS:  cpu time    0.00: real time    0.00
    --------------------------------------------
      LOOP:  cpu time    0.50: real time    0.72

 eigenvalue-minimisations  :    72
 total energy-change (2. order) :-0.3233583E+03  (-0.3156207E+03)
 number of electron  101.0000000 magnetization 
 augmentation part   101.0000000 magnetization 

 Free energy of the ion-electron system (eV)
  ---------------------------------------------------
  alpha Z        PSCENC =        15.76595319
  Ewald energy   TEWEN  =     -2790.72364793
  -1/2 Hartree   DENC   =      -760.60153274
  -exchange  EXHF       =         0.00000000
  -V(xc)+E(xc)   XCENC  =      -745.21804782
  PAW double counting   =      2148.67993976    -1334.04649801
  entropy T*S    EENTRO =        -0.02471644
  eigenvalues    EBANDS =       448.04767766
  atomic energy  EATOM  =      2997.07640482
  ---------------------------------------------------
  free energy    TOTEN  =       -21.04446750 eV

  energy without entropy =      -21.01975106  energy(sigma->0) =      -21.03622868


--------------------------------------------------------------------------------------------------------




----------------------------------------- Iteration    1(   3)  ---------------------------------------


    EDDIAG:  cpu time    0.15: real time    0.15
  RMM-DIIS:  cpu time    0.34: real time    0.34
    ORTHCH:  cpu time    0.01: real time    0.01
       DOS:  cpu time    0.00: real time    0.00
    --------------------------------------------
      LOOP:  cpu time    0.50: real time    0.50

 eigenvalue-minimisations  :    72
 total energy-change (2. order) :-0.5184141E+02  (-0.5383371E+02)
 number of electron  101.0000000 magnetization 
 augmentation part   101.0000000 magnetization 

 Free energy of the ion-electron system (eV)
  ---------------------------------------------------
  alpha Z        PSCENC =        15.76595319
  Ewald energy   TEWEN  =     -2790.72364793
  -1/2 Hartree   DENC   =      -760.60153274
  -exchange  EXHF       =         0.00000000
  -V(xc)+E(xc)   XCENC  =      -745.21804782
  PAW double counting   =      2148.67993976    -1334.04649801
  entropy T*S    EENTRO =        -0.09480396
  eigenvalues    EBANDS =       396.27635408
  atomic energy  EATOM  =      2997.07640482
  ---------------------------------------------------
  free energy    TOTEN  =       -72.88587860 eV

  energy without entropy =      -72.79107464  energy(sigma->0) =      -72.85427728


--------------------------------------------------------------------------------------------------------




----------------------------------------- Iteration    1(   4)  ---------------------------------------


    EDDIAG:  cpu time    0.15: real time    0.15
  RMM-DIIS:  cpu time    0.34: real time    0.34
    ORTHCH:  cpu time    0.01: real time    0.01
       DOS:  cpu time    0.00: real time    0.00
    --------------------------------------------
      LOOP:  cpu time    0.50: real time    0.50

 eigenvalue-minimisations  :    72
 total energy-change (2. order) :-0.1613935E+02  (-0.1241559E+02)
 number of electron  101.0000000 magnetization 
 augmentation part   101.0000000 magnetization 

 Free energy of the ion-electron system (eV)
  ---------------------------------------------------
  alpha Z        PSCENC =        15.76595319
  Ewald energy   TEWEN  =     -2790.72364793
  -1/2 Hartree   DENC   =      -760.60153274
  -exchange  EXHF       =         0.00000000
  -V(xc)+E(xc)   XCENC  =      -745.21804782
  PAW double counting   =      2148.67993976    -1334.04649801
  entropy T*S    EENTRO =         0.01125902
  eigenvalues    EBANDS =       380.03094020
  atomic energy  EATOM  =      2997.07640482
  ---------------------------------------------------
  free energy    TOTEN  =       -89.02522950 eV

  energy without entropy =      -89.03648853  energy(sigma->0) =      -89.02898251


--------------------------------------------------------------------------------------------------------




----------------------------------------- Iteration    1(   5)  ---------------------------------------


    EDDIAG:  cpu time    0.15: real time    0.15
  RMM-DIIS:  cpu time    0.34: real time    0.34
    ORTHCH:  cpu time    0.01: real time    0.01
       DOS:  cpu time    0.00: real time    0.00
    --------------------------------------------
      LOOP:  cpu time    0.50: real time    0.50

 eigenvalue-minimisations  :    72
 total energy-change (2. order) :-0.7831590E+01  (-0.6150626E+01)
 number of electron  101.0000000 magnetization 
 augmentation part   101.0000000 magnetization 

 Free energy of the ion-electron system (eV)
  ---------------------------------------------------
  alpha Z        PSCENC =        15.76595319
  Ewald energy   TEWEN  =     -2790.72364793
  -1/2 Hartree   DENC   =      -760.60153274
  -exchange  EXHF       =         0.00000000
  -V(xc)+E(xc)   XCENC  =      -745.21804782
  PAW double counting   =      2148.67993976    -1334.04649801
  entropy T*S    EENTRO =        -0.08833924
  eigenvalues    EBANDS =       372.29894813
  atomic energy  EATOM  =      2997.07640482
  ---------------------------------------------------
  free energy    TOTEN  =       -96.85681983 eV

  energy without entropy =      -96.76848059  energy(sigma->0) =      -96.82737342


--------------------------------------------------------------------------------------------------------




----------------------------------------- Iteration    1(   6)  ---------------------------------------


    EDDIAG:  cpu time    0.15: real time    0.15
  RMM-DIIS:  cpu time    0.35: real time    0.35
    ORTHCH:  cpu time    0.01: real time    0.01
       DOS:  cpu time    0.00: real time    0.00
    --------------------------------------------
      LOOP:  cpu time    0.51: real time    0.51

 eigenvalue-minimisations  :    72
 total energy-change (2. order) :-0.3844657E+01  (-0.3138985E+01)
 number of electron  101.0000000 magnetization 
 augmentation part   101.0000000 magnetization 

 Free energy of the ion-electron system (eV)
  ---------------------------------------------------
  alpha Z        PSCENC =        15.76595319
  Ewald energy   TEWEN  =     -2790.72364793
  -1/2 Hartree   DENC   =      -760.60153274
  -exchange  EXHF       =         0.00000000
  -V(xc)+E(xc)   XCENC  =      -745.21804782
  PAW double counting   =      2148.67993976    -1334.04649801
  entropy T*S    EENTRO =        -0.05391450
  eigenvalues    EBANDS =       368.41986616
  atomic energy  EATOM  =      2997.07640482
  ---------------------------------------------------
  free energy    TOTEN  =      -100.70147706 eV

  energy without entropy =     -100.64756256  energy(sigma->0) =     -100.68350556


--------------------------------------------------------------------------------------------------------




----------------------------------------- Iteration    1(   7)  ---------------------------------------


    EDDIAG:  cpu time    0.15: real time    0.15
  RMM-DIIS:  cpu time    0.34: real time    0.34
    ORTHCH:  cpu time    0.01: real time    0.01
       DOS:  cpu time    0.00: real time    0.00
    --------------------------------------------
      LOOP:  cpu time    0.50: real time    0.51

 eigenvalue-minimisations  :    72
 total energy-change (2. order) :-0.2067974E+01  (-0.1834538E+01)
 number of electron  101.0000000 magnetization 
 augmentation part   101.0000000 magnetization 

 Free energy of the ion-electron system (eV)
  ---------------------------------------------------
  alpha Z        PSCENC =        15.76595319
  Ewald energy   TEWEN  =     -2790.72364793
  -1/2 Hartree   DENC   =      -760.60153274
  -exchange  EXHF       =         0.00000000
  -V(xc)+E(xc)   XCENC  =      -745.21804782
  PAW double counting   =      2148.67993976    -1334.04649801
  entropy T*S    EENTRO =        -0.05540500
  eigenvalues    EBANDS =       366.35338298
  atomic energy  EATOM  =      2997.07640482
  ---------------------------------------------------
  free energy    TOTEN  =      -102.76945074 eV

  energy without entropy =     -102.71404574  energy(sigma->0) =     -102.75098241


--------------------------------------------------------------------------------------------------------




----------------------------------------- Iteration    1(   8)  ---------------------------------------


    EDDIAG:  cpu time    0.15: real time    0.15
  RMM-DIIS:  cpu time    0.34: real time    0.34
    ORTHCH:  cpu time    0.01: real time    0.01
       DOS:  cpu time    0.00: real time    0.00
    --------------------------------------------
      LOOP:  cpu time    0.50: real time    0.50

 eigenvalue-minimisations  :    72
 total energy-change (2. order) :-0.1236522E+01  (-0.1095729E+01)
 number of electron  101.0000000 magnetization 
 augmentation part   101.0000000 magnetization 

 Free energy of the ion-electron system (eV)
  ---------------------------------------------------
  alpha Z        PSCENC =        15.76595319
  Ewald energy   TEWEN  =     -2790.72364793
  -1/2 Hartree   DENC   =      -760.60153274
  -exchange  EXHF       =         0.00000000
  -V(xc)+E(xc)   XCENC  =      -745.21804782
  PAW double counting   =      2148.67993976    -1334.04649801
  entropy T*S    EENTRO =        -0.05798155
  eigenvalues    EBANDS =       365.11943772
  atomic energy  EATOM  =      2997.07640482
  ---------------------------------------------------
  free energy    TOTEN  =      -104.00597255 eV

  energy without entropy =     -103.94799100  energy(sigma->0) =     -103.98664537


--------------------------------------------------------------------------------------------------------




----------------------------------------- Iteration    1(   9)  ---------------------------------------


    EDDIAG:  cpu time    0.15: real time    0.15
  RMM-DIIS:  cpu time    0.84: real time    0.84
    ORTHCH:  cpu time    0.01: real time    0.01
       DOS:  cpu time    0.00: real time    0.00
    --------------------------------------------
      LOOP:  cpu time    1.00: real time    1.01

 eigenvalue-minimisations  :   191
 total energy-change (2. order) :-0.1875068E+01  (-0.1810007E+01)
 number of electron  101.0000000 magnetization 
 augmentation part   101.0000000 magnetization 

 Free energy of the ion-electron system (eV)
  ---------------------------------------------------
  alpha Z        PSCENC =        15.76595319
  Ewald energy   TEWEN  =     -2790.72364793
  -1/2 Hartree   DENC   =      -760.60153274
  -exchange  EXHF       =         0.00000000
  -V(xc)+E(xc)   XCENC  =      -745.21804782
  PAW double counting   =      2148.67993976    -1334.04649801
  entropy T*S    EENTRO =        -0.07513880
  eigenvalues    EBANDS =       363.26152717
  atomic energy  EATOM  =      2997.07640482
  ---------------------------------------------------
  free energy    TOTEN  =      -105.88104036 eV

  energy without entropy =     -105.80590155  energy(sigma->0) =     -105.85599409


--------------------------------------------------------------------------------------------------------




----------------------------------------- Iteration    1(  10)  ---------------------------------------


    EDDIAG:  cpu time    0.15: real time    0.15
  RMM-DIIS:  cpu time    0.67: real time    0.68
    ORTHCH:  cpu time    0.01: real time    0.01
       DOS:  cpu time    0.00: real time    0.00
    --------------------------------------------
      LOOP:  cpu time    0.83: real time    0.84

 eigenvalue-minimisations  :   157
 total energy-change (2. order) :-0.1683367E+00  (-0.1205640E+00)
 number of electron  101.0000000 magnetization 
 augmentation part   101.0000000 magnetization 

 Free energy of the ion-electron system (eV)
  ---------------------------------------------------
  alpha Z        PSCENC =        15.76595319
  Ewald energy   TEWEN  =     -2790.72364793
  -1/2 Hartree   DENC   =      -760.60153274
  -exchange  EXHF       =         0.00000000
  -V(xc)+E(xc)   XCENC  =      -745.21804782
  PAW double counting   =      2148.67993976    -1334.04649801
  entropy T*S    EENTRO =        -0.04432582
  eigenvalues    EBANDS =       363.06237750
  atomic energy  EATOM  =      2997.07640482
  ---------------------------------------------------
  free energy    TOTEN  =      -106.04937704 eV

  energy without entropy =     -106.00505122  energy(sigma->0) =     -106.03460177


--------------------------------------------------------------------------------------------------------




----------------------------------------- Iteration    1(  11)  ---------------------------------------


    EDDIAG:  cpu time    0.15: real time    0.15
  RMM-DIIS:  cpu time    0.61: real time    0.61
    ORTHCH:  cpu time    0.01: real time    0.01
       DOS:  cpu time    0.00: real time    0.00
    --------------------------------------------
      LOOP:  cpu time    0.78: real time    0.78

 eigenvalue-minimisations  :   136
 total energy-change (2. order) :-0.1713686E-01  (-0.9160784E-02)
 number of electron  101.0000000 magnetization 
 augmentation part   101.0000000 magnetization 

 Free energy of the ion-electron system (eV)
  ---------------------------------------------------
  alpha Z        PSCENC =        15.76595319
  Ewald energy   TEWEN  =     -2790.72364793
  -1/2 Hartree   DENC   =      -760.60153274
  -exchange  EXHF       =         0.00000000
  -V(xc)+E(xc)   XCENC  =      -745.21804782
  PAW double counting   =      2148.67993976    -1334.04649801
  entropy T*S    EENTRO =        -0.04394252
  eigenvalues    EBANDS =       363.04485734
  atomic energy  EATOM  =      2997.07640482
  ---------------------------------------------------
  free energy    TOTEN  =      -106.06651390 eV

  energy without entropy =     -106.02257139  energy(sigma->0) =     -106.05186640


--------------------------------------------------------------------------------------------------------




----------------------------------------- Iteration    1(  12)  ---------------------------------------


    EDDIAG:  cpu time    0.15: real time    0.15
  RMM-DIIS:  cpu time    0.54: real time    0.55
    ORTHCH:  cpu time    0.01: real time    0.01
       DOS:  cpu time    0.00: real time    0.00
    CHARGE:  cpu time    0.13: real time    0.13
    MIXING:  cpu time    0.01: real time    0.01
    --------------------------------------------
      LOOP:  cpu time    0.84: real time    0.84

 eigenvalue-minimisations  :   121
 total energy-change (2. order) :-0.1087687E-02  (-0.7323086E-03)
 number of electron  100.9999958 magnetization 
 augmentation part     3.5361513 magnetization 

 Broyden mixing:
  rms(total) = 0.29587E+01    rms(broyden)= 0.29585E+01
  rms(prec ) = 0.51576E+01
  weight for this iteration     100.00

 Free energy of the ion-electron system (eV)
  ---------------------------------------------------
  alpha Z        PSCENC =        15.76595319
  Ewald energy   TEWEN  =     -2790.72364793
  -1/2 Hartree   DENC   =      -760.60153274
  -exchange  EXHF       =         0.00000000
  -V(xc)+E(xc)   XCENC  =      -745.21804782
  PAW double counting   =      2148.67993976    -1334.04649801
  entropy T*S    EENTRO =        -0.04397169
  eigenvalues    EBANDS =       363.04379883
  atomic energy  EATOM  =      2997.07640482
  ---------------------------------------------------
  free energy    TOTEN  =      -106.06760159 eV

  energy without entropy =     -106.02362990  energy(sigma->0) =     -106.05294436


--------------------------------------------------------------------------------------------------------




----------------------------------------- Iteration    1(  13)  ---------------------------------------


    POTLOK:  cpu time    0.15: real time    0.15
    SETDIJ:  cpu time    0.02: real time    0.02
    EDDIAG:  cpu time    0.15: real time    0.15
  RMM-DIIS:  cpu time    0.93: real time    0.95
    ORTHCH:  cpu time    0.01: real time    0.01
       DOS:  cpu time    0.00: real time    0.00
    CHARGE:  cpu time    0.13: real time    0.13
    MIXING:  cpu time    0.00: real time    0.00
    --------------------------------------------
      LOOP:  cpu time    1.39: real time    1.41

 eigenvalue-minimisations  :   204
 total energy-change (2. order) :-0.3482456E+02  (-0.5185729E+02)
 number of electron  100.9999923 magnetization 
 augmentation part     7.7280333 magnetization 

 Broyden mixing:
  rms(total) = 0.24440E+01    rms(broyden)= 0.24437E+01
  rms(prec ) = 0.42424E+01
  weight for this iteration     100.00

 eigenvalues of (default mixing * dielectric matrix)
  average eigenvalue GAMMA=   0.5489
  0.5489

 Free energy of the ion-electron system (eV)
  ---------------------------------------------------
  alpha Z        PSCENC =        15.76595319
  Ewald energy   TEWEN  =     -2790.72364793
  -1/2 Hartree   DENC   =      -595.29935483
  -exchange  EXHF       =         0.00000000
  -V(xc)+E(xc)   XCENC  =      -749.58894402
  PAW double counting   =      1867.63564837    -1011.00558934
  entropy T*S    EENTRO =         0.02171804
  eigenvalues    EBANDS =       125.22565393
  atomic energy  EATOM  =      2997.07640482
  ---------------------------------------------------
  free energy    TOTEN  =      -140.89215777 eV

  energy without entropy =     -140.91387581  energy(sigma->0) =     -140.89939711


--------------------------------------------------------------------------------------------------------




----------------------------------------- Iteration    1(  14)  ---------------------------------------


    POTLOK:  cpu time    0.15: real time    0.15
    SETDIJ:  cpu time    0.01: real time    0.02
    EDDIAG:  cpu time    0.15: real time    0.15
  RMM-DIIS:  cpu time    0.62: real time    0.62
    ORTHCH:  cpu time    0.01: real time    0.01
       DOS:  cpu time    0.00: real time    0.00
    CHARGE:  cpu time    0.13: real time    0.13
    MIXING:  cpu time    0.00: real time    0.00
    --------------------------------------------
      LOOP:  cpu time    1.08: real time    1.08

 eigenvalue-minimisations  :   144
 total energy-change (2. order) : 0.3253954E+02  (-0.8188422E+01)
 number of electron  100.9999927 magnetization 
 augmentation part     7.1897145 magnetization 

 Broyden mixing:
  rms(total) = 0.13678E+01    rms(broyden)= 0.13678E+01
  rms(prec ) = 0.22951E+01
  weight for this iteration     100.00

 eigenvalues of (default mixing * dielectric matrix)
  average eigenvalue GAMMA=   0.9015
  0.9015  0.9015

 Free energy of the ion-electron system (eV)
  ---------------------------------------------------
  alpha Z        PSCENC =        15.76595319
  Ewald energy   TEWEN  =     -2790.72364793
  -1/2 Hartree   DENC   =      -666.64755136
  -exchange  EXHF       =         0.00000000
  -V(xc)+E(xc)   XCENC  =      -746.75978716
  PAW double counting   =      2005.73325433    -1180.87750402
  entropy T*S    EENTRO =        -0.00252491
  eigenvalues    EBANDS =       258.08278265
  atomic energy  EATOM  =      2997.07640482
  ---------------------------------------------------
  free energy    TOTEN  =      -108.35262039 eV

  energy without entropy =     -108.35009548  energy(sigma->0) =     -108.35177875


--------------------------------------------------------------------------------------------------------




----------------------------------------- Iteration    1(  15)  ---------------------------------------


    POTLOK:  cpu time    0.15: real time    0.15
    SETDIJ:  cpu time    0.02: real time    0.02
    EDDIAG:  cpu time    0.15: real time    0.15
  RMM-DIIS:  cpu time    0.62: real time    0.62
    ORTHCH:  cpu time    0.01: real time    0.01
       DOS:  cpu time    0.00: real time    0.00
    CHARGE:  cpu time    0.13: real time    0.13
    MIXING:  cpu time    0.00: real time    0.00
    --------------------------------------------
      LOOP:  cpu time    1.07: real time    1.08

 eigenvalue-minimisations  :   144
 total energy-change (2. order) : 0.7571623E+01  (-0.2827575E+01)
 number of electron  100.9999933 magnetization 
 augmentation part     6.5166955 magnetization 

 Broyden mixing:
  rms(total) = 0.40256E+00    rms(broyden)= 0.40237E+00
  rms(prec ) = 0.65871E+00
  weight for this iteration     100.00

 eigenvalues of (default mixing * dielectric matrix)
  average eigenvalue GAMMA=   1.1717
  1.7347  0.8902  0.8902

 Free energy of the ion-electron system (eV)
  ---------------------------------------------------
  alpha Z        PSCENC =        15.76595319
  Ewald energy   TEWEN  =     -2790.72364793
  -1/2 Hartree   DENC   =      -714.41870510
  -exchange  EXHF       =         0.00000000
  -V(xc)+E(xc)   XCENC  =      -744.58905600
  PAW double counting   =      2095.34325530    -1284.76257695
  entropy T*S    EENTRO =        -0.00569638
  eigenvalues    EBANDS =       325.53307203
  atomic energy  EATOM  =      2997.07640482
  ---------------------------------------------------
  free energy    TOTEN  =      -100.78099702 eV

  energy without entropy =     -100.77530064  energy(sigma->0) =     -100.77909823


--------------------------------------------------------------------------------------------------------




----------------------------------------- Iteration    1(  16)  ---------------------------------------


    POTLOK:  cpu time    0.15: real time    0.15
    SETDIJ:  cpu time    0.02: real time    0.02
    EDDIAG:  cpu time    0.15: real time    0.15
  RMM-DIIS:  cpu time    0.63: real time    0.63
    ORTHCH:  cpu time    0.01: real time    0.01
       DOS:  cpu time    0.00: real time    0.00
    CHARGE:  cpu time    0.13: real time    0.13
    MIXING:  cpu time    0.00: real time    0.00
    --------------------------------------------
      LOOP:  cpu time    1.09: real time    1.09

 eigenvalue-minimisations  :   144
 total energy-change (2. order) : 0.3413837E-02  (-0.6364898E+00)
 number of electron  100.9999937 magnetization 
 augmentation part     5.9477790 magnetization 

 Broyden mixing:
  rms(total) = 0.35633E+00    rms(broyden)= 0.35623E+00
  rms(prec ) = 0.55057E+00
  weight for this iteration     100.00

 eigenvalues of (default mixing * dielectric matrix)
  average eigenvalue GAMMA=   1.2768
  2.4894  0.7767  0.9205  0.9205

 Free energy of the ion-electron system (eV)
  ---------------------------------------------------
  alpha Z        PSCENC =        15.76595319
  Ewald energy   TEWEN  =     -2790.72364793
  -1/2 Hartree   DENC   =      -736.52260910
  -exchange  EXHF       =         0.00000000
  -V(xc)+E(xc)   XCENC  =      -742.97212021
  PAW double counting   =      2146.31567411    -1336.33138869
  entropy T*S    EENTRO =         0.00148504
  eigenvalues    EBANDS =       346.61266559
  atomic energy  EATOM  =      2997.07640482
  ---------------------------------------------------
  free energy    TOTEN  =      -100.77758318 eV

  energy without entropy =     -100.77906822  energy(sigma->0) =     -100.77807819


--------------------------------------------------------------------------------------------------------




----------------------------------------- Iteration    1(  17)  ---------------------------------------


    POTLOK:  cpu time    0.15: real time    0.15
    SETDIJ:  cpu time    0.02: real time    0.02
    EDDIAG:  cpu time    0.15: real time    0.15
  RMM-DIIS:  cpu time    0.69: real time    0.69
    ORTHCH:  cpu time    0.01: real time    0.01
       DOS:  cpu time    0.00: real time    0.00
    CHARGE:  cpu time    0.13: real time    0.13
    MIXING:  cpu time    0.00: real time    0.00
    --------------------------------------------
      LOOP:  cpu time    1.16: real time    1.16

 eigenvalue-minimisations  :   157
 total energy-change (2. order) : 0.3672453E-01  (-0.7646914E-01)
 number of electron  100.9999937 magnetization 
 augmentation part     5.9795804 magnetization 

 Broyden mixing:
  rms(total) = 0.29327E+00    rms(broyden)= 0.29325E+00
  rms(prec ) = 0.50158E+00
  weight for this iteration     100.00

 eigenvalues of (default mixing * dielectric matrix)
  average eigenvalue GAMMA=   1.2103
  2.6082  0.9637  0.9637  0.7580  0.7580

 Free energy of the ion-electron system (eV)
  ---------------------------------------------------
  alpha Z        PSCENC =        15.76595319
  Ewald energy   TEWEN  =     -2790.72364793
  -1/2 Hartree   DENC   =      -735.87194690
  -exchange  EXHF       =         0.00000000
  -V(xc)+E(xc)   XCENC  =      -742.64870430
  PAW double counting   =      2148.76320281    -1337.80608435
  entropy T*S    EENTRO =         0.00401732
  eigenvalues    EBANDS =       344.69994668
  atomic energy  EATOM  =      2997.07640482
  ---------------------------------------------------
  free energy    TOTEN  =      -100.74085865 eV

  energy without entropy =     -100.74487597  energy(sigma->0) =     -100.74219776


--------------------------------------------------------------------------------------------------------




----------------------------------------- Iteration    1(  18)  ---------------------------------------


    POTLOK:  cpu time    0.15: real time    0.15
    SETDIJ:  cpu time    0.02: real time    0.02
    EDDIAG:  cpu time    0.15: real time    0.15
  RMM-DIIS:  cpu time    0.63: real time    0.63
    ORTHCH:  cpu time    0.01: real time    0.01
       DOS:  cpu time    0.00: real time    0.00
    CHARGE:  cpu time    0.13: real time    0.13
    MIXING:  cpu time    0.01: real time    0.00
    --------------------------------------------
      LOOP:  cpu time    1.09: real time    1.09

 eigenvalue-minimisations  :   144
 total energy-change (2. order) : 0.8862504E-01  (-0.2468454E+00)
 number of electron  100.9999933 magnetization 
 augmentation part     6.3962891 magnetization 

 Broyden mixing:
  rms(total) = 0.19627E+00    rms(broyden)= 0.19619E+00
  rms(prec ) = 0.29748E+00
  weight for this iteration     100.00

 eigenvalues of (default mixing * dielectric matrix)
  average eigenvalue GAMMA=   1.0678
  2.5969  0.8882  0.8882  0.8282  0.6026  0.6026

 Free energy of the ion-electron system (eV)
  ---------------------------------------------------
  alpha Z        PSCENC =        15.76595319
  Ewald energy   TEWEN  =     -2790.72364793
  -1/2 Hartree   DENC   =      -724.36332650
  -exchange  EXHF       =         0.00000000
  -V(xc)+E(xc)   XCENC  =      -742.87149771
  PAW double counting   =      2129.88316904    -1315.34958447
  entropy T*S    EENTRO =        -0.00408092
  eigenvalues    EBANDS =       329.93437686
  atomic energy  EATOM  =      2997.07640482
  ---------------------------------------------------
  free energy    TOTEN  =      -100.65223361 eV

  energy without entropy =     -100.64815269  energy(sigma->0) =     -100.65087330


--------------------------------------------------------------------------------------------------------




----------------------------------------- Iteration    1(  19)  ---------------------------------------


    POTLOK:  cpu time    0.15: real time    0.15
    SETDIJ:  cpu time    0.01: real time    0.02
    EDDIAG:  cpu time    0.15: real time    0.15
  RMM-DIIS:  cpu time    0.67: real time    0.67
    ORTHCH:  cpu time    0.01: real time    0.01
       DOS:  cpu time    0.00: real time    0.00
    CHARGE:  cpu time    0.13: real time    0.13
    MIXING:  cpu time    0.00: real time    0.01
    --------------------------------------------
      LOOP:  cpu time    1.13: real time    1.13

 eigenvalue-minimisations  :   148
 total energy-change (2. order) : 0.6855425E-01  (-0.9752527E-02)
 number of electron  100.9999934 magnetization 
 augmentation part     6.3311294 magnetization 

 Broyden mixing:
  rms(total) = 0.11097E+00    rms(broyden)= 0.11097E+00
  rms(prec ) = 0.16997E+00
  weight for this iteration     100.00

 eigenvalues of (default mixing * dielectric matrix)
  average eigenvalue GAMMA=   1.1720
  2.5550  1.5732  0.8682  0.8682  0.7819  0.7788  0.7788

 Free energy of the ion-electron system (eV)
  ---------------------------------------------------
  alpha Z        PSCENC =        15.76595319
  Ewald energy   TEWEN  =     -2790.72364793
  -1/2 Hartree   DENC   =      -727.50730355
  -exchange  EXHF       =         0.00000000
  -V(xc)+E(xc)   XCENC  =      -742.73067420
  PAW double counting   =      2135.45228483    -1321.34550979
  entropy T*S    EENTRO =        -0.00441154
  eigenvalues    EBANDS =       333.43322480
  atomic energy  EATOM  =      2997.07640482
  ---------------------------------------------------
  free energy    TOTEN  =      -100.58367936 eV

  energy without entropy =     -100.57926782  energy(sigma->0) =     -100.58220885


--------------------------------------------------------------------------------------------------------




----------------------------------------- Iteration    1(  20)  ---------------------------------------


    POTLOK:  cpu time    0.15: real time    0.15
    SETDIJ:  cpu time    0.02: real time    0.02
    EDDIAG:  cpu time    0.15: real time    0.15
  RMM-DIIS:  cpu time    0.64: real time    0.64
    ORTHCH:  cpu time    0.01: real time    0.01
       DOS:  cpu time    0.00: real time    0.00
    CHARGE:  cpu time    0.13: real time    0.13
    MIXING:  cpu time    0.00: real time    0.01
    --------------------------------------------
      LOOP:  cpu time    1.10: real time    1.10

 eigenvalue-minimisations  :   145
 total energy-change (2. order) : 0.2446777E-01  (-0.1309458E-01)
 number of electron  100.9999935 magnetization 
 augmentation part     6.2381671 magnetization 

 Broyden mixing:
  rms(total) = 0.10234E-01    rms(broyden)= 0.10168E-01
  rms(prec ) = 0.20185E-01
  weight for this iteration     100.00

 eigenvalues of (default mixing * dielectric matrix)
  average eigenvalue GAMMA=   1.2256
  2.5892  2.3038  0.8762  0.8762  0.9670  0.7288  0.7319  0.7319

 Free energy of the ion-electron system (eV)
  ---------------------------------------------------
  alpha Z        PSCENC =        15.76595319
  Ewald energy   TEWEN  =     -2790.72364793
  -1/2 Hartree   DENC   =      -731.44228425
  -exchange  EXHF       =         0.00000000
  -V(xc)+E(xc)   XCENC  =      -742.55744407
  PAW double counting   =      2142.21013086    -1328.19752647
  entropy T*S    EENTRO =        -0.00530253
  eigenvalues    EBANDS =       337.31450481
  atomic energy  EATOM  =      2997.07640482
  ---------------------------------------------------
  free energy    TOTEN  =      -100.55921159 eV

  energy without entropy =     -100.55390905  energy(sigma->0) =     -100.55744407


--------------------------------------------------------------------------------------------------------




----------------------------------------- Iteration    1(  21)  ---------------------------------------


    POTLOK:  cpu time    0.15: real time    0.15
    SETDIJ:  cpu time    0.02: real time    0.02
    EDDIAG:  cpu time    0.15: real time    0.15
  RMM-DIIS:  cpu time    0.62: real time    0.62
    ORTHCH:  cpu time    0.01: real time    0.01
       DOS:  cpu time    0.00: real time    0.00
    CHARGE:  cpu time    0.13: real time    0.13
    MIXING:  cpu time    0.00: real time    0.01
    --------------------------------------------
      LOOP:  cpu time    1.08: real time    1.08

 eigenvalue-minimisations  :   136
 total energy-change (2. order) :-0.4527961E-03  (-0.5667569E-03)
 number of electron  100.9999935 magnetization 
 augmentation part     6.2334239 magnetization 

 Broyden mixing:
  rms(total) = 0.16271E-01    rms(broyden)= 0.16270E-01
  rms(prec ) = 0.27062E-01
  weight for this iteration     100.00

 eigenvalues of (default mixing * dielectric matrix)
  average eigenvalue GAMMA=   1.2288
  2.6107  2.4467  0.8649  0.8649  1.1382  0.7739  0.7739  0.7932  0.7932

 Free energy of the ion-electron system (eV)
  ---------------------------------------------------
  alpha Z        PSCENC =        15.76595319
  Ewald energy   TEWEN  =     -2790.72364793
  -1/2 Hartree   DENC   =      -731.70374765
  -exchange  EXHF       =         0.00000000
  -V(xc)+E(xc)   XCENC  =      -742.52647809
  PAW double counting   =      2142.47487932    -1328.24889077
  entropy T*S    EENTRO =        -0.00540197
  eigenvalues    EBANDS =       337.33126469
  atomic energy  EATOM  =      2997.07640482
  ---------------------------------------------------
  free energy    TOTEN  =      -100.55966438 eV

  energy without entropy =     -100.55426241  energy(sigma->0) =     -100.55786373


--------------------------------------------------------------------------------------------------------




----------------------------------------- Iteration    1(  22)  ---------------------------------------


    POTLOK:  cpu time    0.15: real time    0.15
    SETDIJ:  cpu time    0.01: real time    0.02
    EDDIAG:  cpu time    0.15: real time    0.15
  RMM-DIIS:  cpu time    0.54: real time    0.54
    ORTHCH:  cpu time    0.01: real time    0.01
       DOS:  cpu time    0.00: real time    0.00
    --------------------------------------------
      LOOP:  cpu time    0.87: real time    0.87

 eigenvalue-minimisations  :   101
 total energy-change (2. order) :-0.1537996E-04  (-0.3142289E-04)
 number of electron  100.9999935 magnetization 
 augmentation part     6.2334239 magnetization 

 Free energy of the ion-electron system (eV)
  ---------------------------------------------------
  alpha Z        PSCENC =        15.76595319
  Ewald energy   TEWEN  =     -2790.72364793
  -1/2 Hartree   DENC   =      -731.63693871
  -exchange  EXHF       =         0.00000000
  -V(xc)+E(xc)   XCENC  =      -742.52307274
  PAW double counting   =      2142.15489540    -1327.99023715
  entropy T*S    EENTRO =        -0.00543041
  eigenvalues    EBANDS =       337.32239376
  atomic energy  EATOM  =      2997.07640482
  ---------------------------------------------------
  free energy    TOTEN  =      -100.55967976 eV

  energy without entropy =     -100.55424935  energy(sigma->0) =     -100.55786963


--------------------------------------------------------------------------------------------------------




 average (electrostatic) potential at core
  the test charge radii are     1.0406  1.0053
  (the norm of the test charge is              1.0000)
       1 -73.2004       2 -73.3578       3 -73.4497       4 -73.3722       5 -73.3708
       6 -73.3708       7 -72.8729       8 -73.2004       9 -73.3578      10 -72.8222
      11 -73.1312      12 -73.3708      13 -73.3708      14 -73.2072      15 -73.3015
      16 -73.3428      17 -73.3428      18 -73.1339      19 -73.3578      20 -73.2004
      21 -73.4497      22 -73.3722      23 -73.3428      24 -73.3428      25 -73.3275
      26 -73.1410      27 -73.3578      28 -73.2004      29 -72.8222      30 -73.1312
      31 -36.8465
 
 
 
 E-fermi :   7.7306     XC(G=0): -10.0650     alpha+bet :-14.1381
   add alpha+bet to get absolut eigen values

 k-point   1 :       0.0000    0.0000    0.0000
  band No.  band energies     occupation 
      1      -3.4639      2.00000
      2      -1.3547      2.00000
      3      -1.3537      2.00000
      4      -1.3286      2.00000
      5      -1.2938      2.00000
      6      -1.1351      2.00000
      7      -0.8047      2.00000
      8       0.7734      2.00000
      9       0.8138      2.00000
     10       0.8181      2.00000
     11       0.8360      2.00000
     12       0.8532      2.00000
     13       0.9099      2.00000
     14       0.9715      2.00000
     15       0.9887      2.00000
     16       1.0628      2.00000
     17       1.1441      2.00000
     18       1.4636      2.00000
     19       1.9622      2.00000
     20       2.9758      2.00000
     21       2.9957      2.00000
     22       3.0254      2.00000
     23       3.0896      2.00000
     24       3.1681      2.00000
     25       3.2623      2.00000
     26       3.4362      2.00000
     27       3.6353      2.00000
     28       3.9950      2.00000
     29       4.0653      2.00000
     30       4.2136      2.00000
     31       4.2302      2.00000
     32       4.4992      2.00000
     33       4.7851      2.00000
     34       4.8392      2.00000
     35       4.8823      2.00000
     36       6.1414      2.00000
     37       6.1677      2.00000
     38       6.4543      2.00000
     39       6.6052      2.00000
     40       6.6328      2.00000
     41       6.7363      2.00000
     42       6.7553      2.00000
     43       6.7884      2.00000
     44       6.8005      2.00000
     45       6.9501      2.00000
     46       6.9581      2.00000
     47       6.9822      2.00000
     48       7.2080      2.00138
     49       7.3216      2.01379
     50       7.3378      2.01793
     51       7.7410      0.91235
     52       7.8662      0.09622
     53       7.8802      0.04899
     54       7.9774     -0.07089
     55       8.1370     -0.01440
     56       8.1909     -0.00536
     57       8.6226      0.00000
     58       8.6293      0.00000
     59       8.6801      0.00000
     60       8.6941      0.00000
     61       8.7033      0.00000
     62       8.7446      0.00000
     63       8.8478      0.00000
     64       8.8992      0.00000
     65       8.9811      0.00000
     66       8.9866      0.00000
     67       9.0378      0.00000
     68       9.2074      0.00000
     69       9.2771      0.00000
     70       9.3728      0.00000
     71       9.4278      0.00000
     72       9.5802      0.00000


--------------------------------------------------------------------------------------------------------


 soft charge-density along one line, spin component           1
         0         1         2         3         4         5         6         7         8         9
 total charge-density along one line
 
 pseudopotential strength for first ion, spin component:           1
  8.461  -0.005   0.001   0.001   0.000   0.000   0.000   0.000
 -0.005   0.000   0.000   0.000   0.000   0.000   0.000   0.000
  0.001   0.000   1.986   0.000   0.000  -0.025   0.000   0.000
  0.001   0.000   0.000   1.986   0.000   0.000  -0.025   0.000
  0.000   0.000   0.000   0.000   1.986   0.000   0.000  -0.025
  0.000   0.000  -0.025   0.000   0.000  -0.012   0.000   0.000
  0.000   0.000   0.000  -0.025   0.000   0.000  -0.012   0.000
  0.000   0.000   0.000   0.000  -0.025   0.000   0.000  -0.012
 total augmentation occupancy for first ion, spin component:           1
  1.162  -0.546  -0.001  -0.005   0.002   0.004   0.003   0.001
 -0.546   0.472  -0.004  -0.008   0.000   0.000   0.001   0.000
 -0.001  -0.004   0.811   0.028   0.024  -0.181  -0.003  -0.003
 -0.005  -0.008   0.028   0.783   0.007  -0.003  -0.178  -0.001
  0.002   0.000   0.024   0.007   0.782  -0.003  -0.001  -0.178
  0.004   0.000  -0.181  -0.003  -0.003   0.048   0.000   0.000
  0.003   0.001  -0.003  -0.178  -0.001   0.000   0.048   0.000
  0.001   0.000  -0.003  -0.001  -0.178   0.000   0.000   0.048


------------------------ aborting loop because EDIFF is reached ----------------------------------------




--------------------------------------------------------------------------------------------------------



  FREE ENERGIE OF THE ION-ELECTRON SYSTEM (eV)
  ---------------------------------------------------
  free  energy   TOTEN  =      -100.559680 eV

  energy  without entropy=     -100.554249  energy(sigma->0) =     -100.557870
 
    CHARGE:  cpu time    0.12: real time    0.12
    FORLOC:  cpu time    0.04: real time    0.04
    FORNL :  cpu time    0.25: real time    0.25
    STRESS:  cpu time    0.48: real time    0.48
    FORCOR:  cpu time    0.17: real time    0.17
    FORHAR:  cpu time    0.07: real time    0.07
    MIXING:  cpu time    0.01: real time    0.01

  FORCE on cell =-STRESS in cart. coord.  units (eV):
  Direction    XX          YY          ZZ          XY          YZ          ZX
  --------------------------------------------------------------------------------------
  Alpha Z    15.76595    15.76595    15.76595
  Ewald    -954.32940  -882.07559  -954.32940     0.00000     0.00000    44.84029
  Hartree   224.62655   279.03425   224.62655     0.00000     0.00000    28.60887
  E(xc)    -316.83214  -316.68799  -316.83214     0.00000     0.00000     0.07995
  Local     -45.98006  -171.26631   -45.98006     0.00000     0.00000   -72.47049
  n-local   500.07662   498.74049   500.07678    -0.00013     0.00064    -0.65854
  augment    30.36716    30.23714    30.36716    -0.00001     0.00000    -0.20989
  Kinetic   534.78667   535.83283   534.78692     0.00203    -0.00210    -0.32503
  Fock        0.00000     0.00000     0.00000     0.00000     0.00000     0.00000
  -------------------------------------------------------------------------------------
  Total     -11.51843   -10.41924   -11.51843     0.00000     0.00000    -0.13484
  in kB     -34.89274   -31.56298   -34.89274     0.00000     0.00000    -0.40847
  external pressure =      -33.78 kB  Pullay stress =        0.00 kB


 VOLUME and BASIS-vectors are now :
 -----------------------------------------------------------------------------
  energy-cutoff  :      300.00
  volume of cell :      528.89
      direct lattice vectors                 reciprocal lattice vectors
     8.087040000  0.000000000  0.000000000     0.123654638  0.000000000  0.000000000
     0.000000000  8.087040000  0.000000000     0.000000000  0.123654638  0.000000000
     0.000000000  0.000000000  8.087040000     0.000000000  0.000000000  0.123654638

  length of vectors
     8.087040000  8.087040000  8.087040000     0.123654638  0.123654638  0.123654638


 FORCES acting on ions
    electron-ion (+dipol)            ewald-force                    non-local-force                 convergence-correction
 -----------------------------------------------------------------------------------------------
   -.225E+01 0.297E+01 0.515E+01   0.211E+01 -.352E+01 -.564E+01   0.101E-01 0.233E+00 0.223E+00   0.623E-02 0.192E-01 0.195E-01
   0.248E+02 0.153E+02 -.934E+01   -.250E+02 -.156E+02 0.936E+01   0.106E+00 0.331E+00 -.732E-01   0.488E-01 0.454E-01 0.306E-02
   0.246E+02 0.530E-13 0.247E+02   -.250E+02 0.208E-14 -.250E+02   0.321E+00 0.000E+00 0.328E+00   0.468E-01 0.320E-13 0.489E-01
   -.941E+01 0.110E-14 -.963E+01   0.936E+01 0.431E-14 0.936E+01   0.118E+00 0.136E-19 0.212E+00   0.408E-02 0.383E-13 0.214E-02
   0.222E+01 0.225E+02 0.246E+02   -.211E+01 -.228E+02 -.250E+02   -.880E-01 0.329E+00 0.362E+00   -.535E-02 0.461E-01 0.482E-01
   -.246E+02 0.225E+02 -.222E+01   0.250E+02 -.228E+02 0.211E+01   -.362E+00 0.329E+00 0.880E-01   -.482E-01 0.461E-01 0.535E-02
   -.244E+02 0.891E-13 0.244E+02   0.250E+02 -.324E-14 -.250E+02   -.326E+00 0.000E+00 0.326E+00   -.465E-01 0.386E-13 0.465E-01
   -.225E+01 -.297E+01 0.515E+01   0.211E+01 0.352E+01 -.564E+01   0.101E-01 -.233E+00 0.223E+00   0.623E-02 -.192E-01 0.195E-01
   0.248E+02 -.153E+02 -.934E+01   -.250E+02 0.156E+02 0.936E+01   0.106E+00 -.331E+00 -.732E-01   0.488E-01 -.454E-01 0.306E-02
   0.560E+01 -.307E-13 0.528E+01   -.564E+01 -.548E-14 -.564E+01   -.919E-01 0.339E-20 0.217E+00   0.186E-01 -.289E-13 0.191E-01
   -.233E+01 -.223E-13 -.210E+01   0.211E+01 -.706E-14 0.211E+01   0.129E+00 0.000E+00 -.140E+00   0.533E-02 -.379E-13 0.497E-02
   0.222E+01 -.225E+02 0.246E+02   -.211E+01 0.228E+02 -.250E+02   -.880E-01 -.329E+00 0.362E+00   -.535E-02 -.461E-01 0.482E-01
   -.246E+02 -.225E+02 -.222E+01   0.250E+02 0.228E+02 0.211E+01   -.362E+00 -.329E+00 0.880E-01   -.482E-01 -.461E-01 0.535E-02
   -.490E+01 -.174E-12 0.490E+01   0.564E+01 -.619E-14 -.564E+01   -.368E+00 0.000E+00 0.368E+00   -.207E-01 -.406E-13 0.207E-01
   0.228E+01 -.199E-11 -.228E+01   -.211E+01 -.113E-13 0.211E+01   -.160E+00 0.000E+00 0.160E+00   -.574E-02 -.471E-13 0.574E-02
   -.961E+01 -.411E+01 -.535E+01   0.936E+01 0.372E+01 0.564E+01   0.156E+00 0.261E+00 -.175E+00   0.293E-02 0.156E-01 -.184E-01
   0.535E+01 -.411E+01 0.961E+01   -.564E+01 0.372E+01 -.936E+01   0.175E+00 0.261E+00 -.156E+00   0.184E-01 0.156E-01 -.293E-02
   -.954E+01 -.632E-14 0.954E+01   0.936E+01 0.722E-14 -.936E+01   0.265E-01 0.000E+00 -.265E-01   0.232E-02 0.270E-13 -.232E-02
   0.934E+01 0.153E+02 -.248E+02   -.936E+01 -.156E+02 0.250E+02   0.732E-01 0.331E+00 -.106E+00   -.306E-02 0.454E-01 -.488E-01
   -.515E+01 0.297E+01 0.225E+01   0.564E+01 -.352E+01 -.211E+01   -.223E+00 0.233E+00 -.101E-01   -.195E-01 0.192E-01 -.624E-02
   -.247E+02 -.211E-12 -.246E+02   0.250E+02 0.549E-14 0.250E+02   -.328E+00 0.000E+00 -.321E+00   -.489E-01 0.372E-13 -.468E-01
   0.963E+01 -.126E-11 0.941E+01   -.936E+01 0.194E-14 -.936E+01   -.212E+00 0.136E-19 -.118E+00   -.214E-02 0.301E-13 -.408E-02
   -.961E+01 0.411E+01 -.535E+01   0.936E+01 -.372E+01 0.564E+01   0.156E+00 -.261E+00 -.175E+00   0.293E-02 -.156E-01 -.184E-01
   0.535E+01 0.411E+01 0.961E+01   -.564E+01 -.372E+01 -.936E+01   0.175E+00 -.261E+00 -.156E+00   0.184E-01 -.156E-01 -.293E-02
   0.537E+01 0.866E-13 -.537E+01   -.564E+01 -.402E-14 0.564E+01   0.273E+00 0.000E+00 -.273E+00   0.195E-01 -.374E-13 -.195E-01
   -.263E+01 -.182E-13 0.263E+01   0.211E+01 -.516E-14 -.211E+01   0.133E+00 0.000E+00 -.133E+00   0.690E-02 -.266E-13 -.690E-02
   0.934E+01 -.153E+02 -.248E+02   -.936E+01 0.156E+02 0.250E+02   0.732E-01 -.331E+00 -.106E+00   -.306E-02 -.454E-01 -.488E-01
   -.515E+01 -.297E+01 0.225E+01   0.564E+01 0.352E+01 -.211E+01   -.223E+00 -.233E+00 -.101E-01   -.195E-01 -.192E-01 -.624E-02
   -.528E+01 -.159E-13 -.560E+01   0.564E+01 -.657E-14 0.564E+01   -.217E+00 0.339E-20 0.919E-01   -.191E-01 -.391E-13 -.186E-01
   0.210E+01 -.466E-11 0.233E+01   -.211E+01 -.912E-14 -.211E+01   0.140E+00 0.000E+00 -.129E+00   -.497E-02 -.313E-13 -.533E-02
   0.338E+02 -.305E-11 -.338E+02   -.343E+02 0.455E-14 0.343E+02   0.545E+00 0.000E+00 -.545E+00   -.346E-01 0.740E-13 0.346E-01
 -----------------------------------------------------------------------------------------------
   0.402E+00 -.134E-10 -.402E+00   -.142E-13 -.102E-13 -.355E-13   -.321E+00 0.389E-15 0.321E+00   -.785E-01 -.140E-13 0.785E-01
 
 
 POSITION                                       TOTAL-FORCE (eV/Angst)
 -----------------------------------------------------------------------------------
      0.00000      0.00000      0.00000        -0.120901     -0.296373     -0.246513
      2.02176      0.00000      2.02176         0.044014      0.035896     -0.052489
      2.02176      2.02176      0.00000        -0.027379      0.000000      0.101018
      0.00000      2.02176      2.02176         0.066319      0.000000     -0.062538
      4.04352      0.00000      0.00000         0.011722     -0.008841      0.061447
      6.06528      0.00000      2.02176        -0.061447     -0.008841     -0.011722
      6.06528      2.02176      0.00000         0.174786      0.000000     -0.174786
      0.00000      4.04352      0.00000        -0.120901      0.296373     -0.246513
      2.02176      4.04352      2.02176         0.044014     -0.035896     -0.052489
      2.02176      6.06528      0.00000        -0.109334      0.000000     -0.119913
      0.00000      6.06528      2.02176        -0.086943      0.000000     -0.119700
      4.04352      4.04352      0.00000         0.011722      0.008841      0.061447
      6.06528      4.04352      2.02176        -0.061447      0.008841     -0.011722
      6.06528      6.06528      0.00000         0.347880      0.000000     -0.347880
      4.04352      6.06528      2.02176        -0.000169      0.000000      0.000169
      0.00000      0.00000      4.04352        -0.094727     -0.107994      0.088722
      2.02176      0.00000      6.06528        -0.088722     -0.107994      0.094727
      0.00000      2.02176      6.06528        -0.154979      0.000000      0.154979
      4.04352      0.00000      4.04352         0.052489      0.035896     -0.044014
      6.06528      0.00000      6.06528         0.246513     -0.296373      0.120901
      6.06528      2.02176      4.04352        -0.101018      0.000000      0.027379
      4.04352      2.02176      6.06528         0.062538      0.000000     -0.066319
      0.00000      4.04352      4.04352        -0.094727      0.107994      0.088722
      2.02176      4.04352      6.06528        -0.088722      0.107994      0.094727
      2.02176      6.06528      4.04352         0.025181      0.000000     -0.025181
      0.00000      6.06528      6.06528        -0.371407      0.000000      0.371407
      4.04352      4.04352      4.04352         0.052489     -0.035896     -0.044014
      6.06528      4.04352      6.06528         0.246513      0.296373      0.120901
      6.06528      6.06528      4.04352         0.119913      0.000000      0.109334
      4.04352      6.06528      6.06528         0.119700      0.000000      0.086943
      4.04352      2.02176      2.02176        -0.042969      0.000000      0.042969
 -----------------------------------------------------------------------------------
    total drift:                                0.001709      0.000000     -0.001707


--------------------------------------------------------------------------------------------------------


    POTLOK:  cpu time    0.17: real time    0.17


--------------------------------------------------------------------------------------------------------


  FORCES: max atom, RMS     0.525248    0.225317
  FORCE total and by dimension    1.254512    0.371407


--------------------------------------------------------------------------------------------------------


    WAVPRE:  cpu time    0.05: real time    0.05
    FEWALD:  cpu time    0.01: real time    0.01
    ORTHCH:  cpu time    0.06: real time    0.06
     LOOP+:  cpu time   20.17: real time   20.45
   RESPFUN:  cpu time    0.00: real time    0.00


----------------------------------------- Iteration    2(   1)  ---------------------------------------


    POTLOK:  cpu time    0.15: real time    0.15
    SETDIJ:  cpu time    0.01: real time    0.02
    EDDIAG:  cpu time    0.15: real time    0.15
  RMM-DIIS:  cpu time    0.63: real time    0.63
    ORTHCH:  cpu time    0.01: real time    0.01
       DOS:  cpu time    0.00: real time    0.00
    CHARGE:  cpu time    0.13: real time    0.13
    MIXING:  cpu time    0.00: real time    0.00
    --------------------------------------------
      LOOP:  cpu time    1.09: real time    1.09

 eigenvalue-minimisations  :   144
 total energy-change (2. order) :-0.6912080E-01  (-0.6079118E-01)
 number of electron  100.9999937 magnetization 
 augmentation part     6.2378644 magnetization 

 Broyden mixing:
  rms(total) = 0.27181E-01    rms(broyden)= 0.27177E-01
  rms(prec ) = 0.83347E-01
  weight for this iteration     100.00

 Free energy of the ion-electron system (eV)
  ---------------------------------------------------
  alpha Z        PSCENC =        15.76595319
  Ewald energy   TEWEN  =     -2790.61333983
  -1/2 Hartree   DENC   =      -731.08725710
  -exchange  EXHF       =         0.00000000
  -V(xc)+E(xc)   XCENC  =      -742.52873642
  PAW double counting   =      2141.15630626    -1326.92562460
  entropy T*S    EENTRO =        -0.00642040
  eigenvalues    EBANDS =       336.53392889
  atomic energy  EATOM  =      2997.07640482
  ---------------------------------------------------
  free energy    TOTEN  =      -100.62878518 eV

[...]


    POTLOK:  cpu time    0.15: real time    0.15
    SETDIJ:  cpu time    0.02: real time    0.02
    EDDIAG:  cpu time    0.15: real time    0.15
  RMM-DIIS:  cpu time    0.57: real time    0.57
    ORTHCH:  cpu time    0.01: real time    0.01
       DOS:  cpu time    0.00: real time    0.00
    CHARGE:  cpu time    0.13: real time    0.13
    MIXING:  cpu time    0.00: real time    0.00
    --------------------------------------------
      LOOP:  cpu time    1.03: real time    1.03

 eigenvalue-minimisations  :   116
 total energy-change (2. order) : 0.1942978E-03  (-0.1242354E-03)
 number of electron  100.9999948 magnetization 
 augmentation part     6.2522160 magnetization 

 Broyden mixing:
  rms(total) = 0.49392E-02    rms(broyden)= 0.49377E-02
  rms(prec ) = 0.74496E-02
  weight for this iteration     100.00

 eigenvalues of (default mixing * dielectric matrix)
  average eigenvalue GAMMA=   1.0349
  0.4348  0.8770  1.7929

 Free energy of the ion-electron system (eV)
  ---------------------------------------------------
  alpha Z        PSCENC =        15.76595319
  Ewald energy   TEWEN  =     -2790.52357554
  -1/2 Hartree   DENC   =      -729.98226922
  -exchange  EXHF       =         0.00000000
  -V(xc)+E(xc)   XCENC  =      -742.40041764
  PAW double counting   =      2140.67183567    -1326.38209797
  entropy T*S    EENTRO =         0.02402080
  eigenvalues    EBANDS =       335.04782587
  atomic energy  EATOM  =      2997.07640482
  ---------------------------------------------------
  free energy    TOTEN  =      -100.70232003 eV

  energy without entropy =     -100.72634082  energy(sigma->0) =     -100.71032696


--------------------------------------------------------------------------------------------------------




----------------------------------------- Iteration    5(   5)  ---------------------------------------


    POTLOK:  cpu time    0.15: real time    0.15
    SETDIJ:  cpu time    0.01: real time    0.02
    EDDIAG:  cpu time    0.15: real time    0.15
  RMM-DIIS:  cpu time    0.45: real time    0.45
    ORTHCH:  cpu time    0.01: real time    0.01
       DOS:  cpu time    0.00: real time    0.00
    --------------------------------------------
      LOOP:  cpu time    0.77: real time    0.78

 eigenvalue-minimisations  :    93
 total energy-change (2. order) : 0.3159328E-04  (-0.1974288E-04)
 number of electron  100.9999948 magnetization 
 augmentation part     6.2522160 magnetization 

 Free energy of the ion-electron system (eV)
  ---------------------------------------------------
  alpha Z        PSCENC =        15.76595319
  Ewald energy   TEWEN  =     -2790.52357554
  -1/2 Hartree   DENC   =      -730.08103489
  -exchange  EXHF       =         0.00000000
  -V(xc)+E(xc)   XCENC  =      -742.39512740
  PAW double counting   =      2140.79730919    -1326.54422682
  entropy T*S    EENTRO =         0.02398991
  eigenvalues    EBANDS =       335.17801910
  atomic energy  EATOM  =      2997.07640482
  ---------------------------------------------------
  free energy    TOTEN  =      -100.70228843 eV

  energy without entropy =     -100.72627834  energy(sigma->0) =     -100.71028507


--------------------------------------------------------------------------------------------------------




 average (electrostatic) potential at core
  the test charge radii are     1.0406  1.0053
  (the norm of the test charge is              1.0000)
       1 -73.1585       2 -73.4286       3 -73.4933       4 -73.4083       5 -73.3800
       6 -73.3800       7 -72.8207       8 -73.1585       9 -73.4286      10 -72.7649
      11 -73.0922      12 -73.3800      13 -73.3800      14 -73.0986      15 -73.2979
      16 -73.3434      17 -73.3434      18 -73.0966      19 -73.4286      20 -73.1585
      21 -73.4933      22 -73.4083      23 -73.3434      24 -73.3434      25 -73.3656
      26 -72.9816      27 -73.4286      28 -73.1585      29 -72.7649      30 -73.0922
      31 -36.9846
 
 
 
 E-fermi :   7.7351     XC(G=0): -10.0600     alpha+bet :-14.1381
   add alpha+bet to get absolut eigen values

 k-point   1 :       0.0000    0.0000    0.0000
  band No.  band energies     occupation 
      1      -3.4892      2.00000
      2      -1.3913      2.00000
      3      -1.3091      2.00000
      4      -1.3059      2.00000
      5      -1.2832      2.00000
      6      -1.1725      2.00000
      7      -0.9185      2.00000
      8       0.7449      2.00000
      9       0.8434      2.00000
     10       0.8551      2.00000
     11       0.8783      2.00000
     12       0.8962      2.00000
     13       0.8980      2.00000
     14       0.9112      2.00000
     15       0.9708      2.00000
     16       1.0844      2.00000
     17       1.0848      2.00000
     18       1.3942      2.00000
     19       1.9332      2.00000
     20       2.9585      2.00000
     21       2.9618      2.00000
     22       3.0109      2.00000
     23       3.1244      2.00000
     24       3.1816      2.00000
     25       3.2725      2.00000
     26       3.4303      2.00000
     27       3.6097      2.00000
     28       3.8865      2.00000
     29       3.9770      2.00000
     30       4.1240      2.00000
     31       4.1440      2.00000
     32       4.4983      2.00000
     33       4.7662      2.00000
     34       4.8047      2.00000
     35       4.8407      2.00000
     36       6.1117      2.00000
     37       6.1209      2.00000
     38       6.4195      2.00000
     39       6.6847      2.00000
     40       6.7078      2.00000
     41       6.7097      2.00000
     42       6.7581      2.00000
     43       6.7644      2.00000
     44       6.8020      2.00000
     45       6.8996      2.00000
     46       6.9287      2.00000
     47       6.9493      2.00000
     48       7.1852      2.00071
     49       7.2362      2.00238
     50       7.2582      2.00382
     51       7.7235      1.09739
     52       7.8661      0.11355
     53       7.9594     -0.06718
     54       7.9935     -0.06964
     55       8.0545     -0.04640
     56       8.0808     -0.03462
     57       8.6115      0.00000
     58       8.6392      0.00000
     59       8.6779      0.00000
     60       8.6982      0.00000
     61       8.7185      0.00000
     62       8.7277      0.00000
     63       8.8898      0.00000
     64       8.9072      0.00000
     65       8.9582      0.00000
     66       8.9794      0.00000
     67       9.0029      0.00000
     68       9.1691      0.00000
     69       9.2298      0.00000
     70       9.3274      0.00000
     71       9.4187      0.00000
     72       9.4853      0.00000


--------------------------------------------------------------------------------------------------------


 soft charge-density along one line, spin component           1
         0         1         2         3         4         5         6         7         8         9
 total charge-density along one line
 
 pseudopotential strength for first ion, spin component:           1
  8.461  -0.005   0.002   0.001   0.000   0.000   0.000   0.000
 -0.005   0.000   0.000   0.000   0.000   0.000   0.000   0.000
  0.002   0.000   1.986   0.000   0.000  -0.025   0.000   0.000
  0.001   0.000   0.000   1.987   0.000   0.000  -0.025   0.000
  0.000   0.000   0.000   0.000   1.986   0.000   0.000  -0.025
  0.000   0.000  -0.025   0.000   0.000  -0.012   0.000   0.000
  0.000   0.000   0.000  -0.025   0.000   0.000  -0.012   0.000
  0.000   0.000   0.000   0.000  -0.025   0.000   0.000  -0.012
 total augmentation occupancy for first ion, spin component:           1
  1.158  -0.570  -0.028  -0.019   0.001   0.021   0.013   0.002
 -0.570   0.502   0.013   0.005   0.005  -0.012  -0.007  -0.002
 -0.028   0.013   0.814   0.028   0.029  -0.190  -0.004  -0.004
 -0.019   0.005   0.028   0.792   0.009  -0.004  -0.186  -0.002
  0.001   0.005   0.029   0.009   0.809  -0.004  -0.002  -0.188
  0.021  -0.012  -0.190  -0.004  -0.004   0.052   0.001   0.001
  0.013  -0.007  -0.004  -0.186  -0.002   0.001   0.051   0.001
  0.002  -0.002  -0.004  -0.002  -0.188   0.001   0.001   0.052


------------------------ aborting loop because EDIFF is reached ----------------------------------------




--------------------------------------------------------------------------------------------------------



  FREE ENERGIE OF THE ION-ELECTRON SYSTEM (eV)
  ---------------------------------------------------
  free  energy   TOTEN  =      -100.702288 eV

  energy  without entropy=     -100.726278  energy(sigma->0) =     -100.710285
 
    CHARGE:  cpu time    0.12: real time    0.12
    FORLOC:  cpu time    0.04: real time    0.04
    FORNL :  cpu time    0.25: real time    0.25
    STRESS:  cpu time    0.48: real time    0.48
    FORCOR:  cpu time    0.17: real time    0.17
    FORHAR:  cpu time    0.07: real time    0.07
    MIXING:  cpu time    0.00: real time    0.00

  FORCE on cell =-STRESS in cart. coord.  units (eV):
  Direction    XX          YY          ZZ          XY          YZ          ZX
  --------------------------------------------------------------------------------------
  Alpha Z    15.76595    15.76595    15.76595
  Ewald    -956.33923  -877.85567  -956.33923     0.00000     0.00000    50.75190
  Hartree   223.90832   282.17627   223.90832     0.00000     0.00000    32.42140
  E(xc)    -317.05953  -316.86554  -317.05953     0.00000     0.00000     0.09331
  Local     -43.27520  -177.40642   -43.27520     0.00000     0.00000   -82.51301
  n-local   502.55982   500.40582   502.55980    -0.00022     0.00014    -0.72955
  augment    30.67942    30.56363    30.67941    -0.00001    -0.00002    -0.27958
  Kinetic   535.18161   536.68726   535.18174     0.00007    -0.00009    -0.21169
  Fock        0.00000     0.00000     0.00000     0.00000     0.00000     0.00000
  -------------------------------------------------------------------------------------
  Total      -8.57878    -6.52869    -8.57878     0.00000     0.00000    -0.46724
  in kB     -25.98768   -19.77733   -25.98768     0.00000     0.00000    -1.41540
  external pressure =      -23.92 kB  Pullay stress =        0.00 kB


 VOLUME and BASIS-vectors are now :
 -----------------------------------------------------------------------------
  energy-cutoff  :      300.00
  volume of cell :      528.89
      direct lattice vectors                 reciprocal lattice vectors
     8.087040000  0.000000000  0.000000000     0.123654638  0.000000000  0.000000000
     0.000000000  8.087040000  0.000000000     0.000000000  0.123654638  0.000000000
     0.000000000  0.000000000  8.087040000     0.000000000  0.000000000  0.123654638

  length of vectors
     8.087040000  8.087040000  8.087040000     0.123654638  0.123654638  0.123654638


 FORCES acting on ions
    electron-ion (+dipol)            ewald-force                    non-local-force                 convergence-correction
 -----------------------------------------------------------------------------------------------
   -.326E+01 -.234E+01 0.218E+01   0.319E+01 0.906E+00 -.299E+01   0.690E-01 0.144E+01 0.795E+00   -.264E-02 -.436E-04 -.205E-02
   0.237E+02 0.147E+02 -.115E+02   -.240E+02 -.151E+02 0.110E+02   0.319E+00 0.211E+00 0.464E+00   0.189E-03 0.305E-02 -.155E-02
   0.235E+02 -.804E-13 0.263E+02   -.241E+02 -.231E-14 -.260E+02   0.625E+00 0.000E+00 -.362E+00   0.398E-03 0.452E-13 -.699E-03
   -.817E+01 0.999E-14 -.118E+02   0.842E+01 0.424E-15 0.111E+02   -.306E+00 0.000E+00 0.754E+00   -.200E-02 0.511E-13 -.912E-03
   0.288E+01 0.212E+02 0.246E+02   -.267E+01 -.216E+02 -.247E+02   -.218E+00 0.401E+00 0.108E+00   0.627E-03 0.261E-02 -.171E-02
   -.246E+02 0.212E+02 -.288E+01   0.247E+02 -.216E+02 0.267E+01   -.108E+00 0.401E+00 0.218E+00   0.171E-02 0.261E-02 -.626E-03
   -.216E+02 -.401E-14 0.216E+02   0.223E+02 0.316E-14 -.223E+02   -.721E+00 0.000E+00 0.721E+00   0.354E-03 0.283E-13 -.360E-03
   -.326E+01 0.234E+01 0.218E+01   0.319E+01 -.906E+00 -.299E+01   0.690E-01 -.144E+01 0.795E+00   -.264E-02 0.436E-04 -.205E-02
   0.237E+02 -.147E+02 -.115E+02   -.240E+02 0.151E+02 0.110E+02   0.319E+00 -.211E+00 0.464E+00   0.189E-03 -.305E-02 -.155E-02
   0.143E+01 -.226E-12 0.321E+01   -.199E+01 0.208E-14 -.390E+01   0.675E+00 0.000E+00 0.692E+00   -.247E-02 -.374E-13 -.143E-02
   -.357E+01 -.176E-14 -.536E+01   0.314E+01 0.225E-14 0.496E+01   0.375E+00 0.000E+00 0.465E+00   -.219E-02 -.518E-13 -.278E-02
   0.288E+01 -.212E+02 0.246E+02   -.267E+01 0.216E+02 -.247E+02   -.218E+00 -.401E+00 0.108E+00   0.627E-03 -.261E-02 -.171E-02
   -.246E+02 -.212E+02 -.288E+01   0.247E+02 0.216E+02 0.267E+01   -.108E+00 -.401E+00 0.218E+00   0.171E-02 -.261E-02 -.626E-03
   0.636E+00 0.525E-13 -.636E+00   0.103E+01 -.353E-14 -.103E+01   -.169E+01 0.000E+00 0.169E+01   0.359E-02 -.162E-13 -.359E-02
   0.281E+01 0.115E-11 -.281E+01   -.271E+01 -.502E-14 0.271E+01   -.152E+00 0.000E+00 0.152E+00   0.116E-02 -.134E-12 -.116E-02
   -.119E+02 -.704E+01 -.255E+01   0.113E+02 0.624E+01 0.323E+01   0.533E+00 0.808E+00 -.706E+00   -.264E-02 0.202E-02 0.498E-03
   0.255E+01 -.704E+01 0.119E+02   -.323E+01 0.624E+01 -.113E+02   0.706E+00 0.808E+00 -.533E+00   -.495E-03 0.202E-02 0.264E-02
   -.118E+02 -.621E-14 0.118E+02   0.113E+02 -.130E-14 -.113E+02   0.538E+00 0.000E+00 -.538E+00   -.158E-02 0.263E-13 0.158E-02
   0.115E+02 0.147E+02 -.237E+02   -.110E+02 -.151E+02 0.240E+02   -.464E+00 0.211E+00 -.319E+00   0.155E-02 0.305E-02 -.186E-03
   -.218E+01 -.234E+01 0.326E+01   0.299E+01 0.906E+00 -.319E+01   -.795E+00 0.144E+01 -.690E-01   0.205E-02 -.419E-04 0.264E-02
   -.263E+02 -.117E-12 -.235E+02   0.260E+02 -.118E-13 0.241E+02   0.362E+00 0.000E+00 -.625E+00   0.694E-03 0.116E-12 -.393E-03
   0.118E+02 -.335E-12 0.817E+01   -.111E+02 -.312E-14 -.842E+01   -.754E+00 -.296E-20 0.306E+00   0.914E-03 0.411E-13 0.200E-02
   -.119E+02 0.704E+01 -.255E+01   0.113E+02 -.624E+01 0.323E+01   0.533E+00 -.808E+00 -.706E+00   -.264E-02 -.202E-02 0.498E-03
   0.255E+01 0.704E+01 0.119E+02   -.323E+01 -.624E+01 -.113E+02   0.706E+00 -.808E+00 -.533E+00   -.495E-03 -.202E-02 0.264E-02
   0.435E+01 0.406E-13 -.435E+01   -.459E+01 -.295E-14 0.459E+01   0.299E+00 0.000E+00 -.299E+00   -.840E-03 -.867E-13 0.841E-03
   -.745E+01 -.192E-13 0.745E+01   0.618E+01 -.175E-14 -.618E+01   0.131E+01 0.000E+00 -.131E+01   -.431E-02 -.211E-13 0.431E-02
   0.115E+02 -.147E+02 -.237E+02   -.110E+02 0.151E+02 0.240E+02   -.464E+00 -.211E+00 -.319E+00   0.155E-02 -.305E-02 -.186E-03
   -.218E+01 0.234E+01 0.326E+01   0.299E+01 -.906E+00 -.319E+01   -.795E+00 -.144E+01 -.690E-01   0.205E-02 0.419E-04 0.264E-02
   -.321E+01 -.260E-13 -.143E+01   0.390E+01 0.102E-13 0.199E+01   -.692E+00 0.000E+00 -.675E+00   0.143E-02 -.111E-12 0.247E-02
   0.536E+01 0.289E-11 0.357E+01   -.496E+01 -.207E-14 -.314E+01   -.465E+00 0.424E-21 -.375E+00   0.278E-02 -.754E-14 0.219E-02
   0.349E+02 0.247E-11 -.349E+02   -.355E+02 -.113E-13 0.355E+02   0.549E+00 0.000E+00 -.549E+00   0.444E-03 0.169E-12 -.435E-03
 -----------------------------------------------------------------------------------------------
   -.357E-01 0.355E-11 0.357E-01   0.497E-13 0.563E-14 0.000E+00   0.349E-01 -.222E-15 -.349E-01   -.926E-03 -.474E-13 0.927E-03
 
 
 POSITION                                       TOTAL-FORCE (eV/Angst)
 -----------------------------------------------------------------------------------
     -0.00837     -0.06621     -0.03286        -0.008180      0.000881     -0.015894
      2.00678     -0.00535      1.99082        -0.002902     -0.098500      0.001893
      2.00747      2.02176      0.02395         0.022468      0.000000     -0.060402
      0.01242      2.02176      1.99476        -0.056020      0.000000      0.040899
      4.05596     -0.00105      0.00899        -0.006015     -0.003842     -0.033282
      6.05629     -0.00105      2.00932         0.033282     -0.003842      0.006015
      6.10010      2.02176     -0.03482         0.010709      0.000000     -0.010709
     -0.00837      4.10973     -0.03286        -0.008180     -0.000881     -0.015894
      2.00678      4.04887      1.99082        -0.002902      0.098500      0.001893
      1.99581      6.06528     -0.02866         0.112292      0.000000     -0.008339
     -0.01884      6.06528      1.99074        -0.056249      0.000000      0.063334
      4.05596      4.04457      0.00899        -0.006015      0.003842     -0.033282
      6.05629      4.04457      2.00932         0.033282      0.003842      0.006015
      6.12275      6.06528     -0.05747        -0.015468      0.000000      0.015468
      4.04791      6.06528      2.01737        -0.042825      0.000000      0.042825
     -0.02714     -0.03412      4.06986        -0.055614      0.008588     -0.021213
      1.99542     -0.03412      6.09242         0.021213      0.008588      0.055614
     -0.03190      2.02176      6.09718         0.003917      0.000000     -0.003917
      4.07446     -0.00535      4.05850        -0.001893     -0.098500      0.002902
      6.09814     -0.06621      6.07365         0.015894      0.000881      0.008180
      6.04133      2.02176      4.05781         0.060402      0.000000     -0.022468
      4.07052      2.02176      6.05286        -0.040899      0.000000      0.056020
     -0.02714      4.07764      4.06986        -0.055614     -0.008588     -0.021213
      1.99542      4.07764      6.09242         0.021213     -0.008588      0.055614
      2.01789      6.06528      4.04739         0.060679      0.000000     -0.060679
     -0.05182      6.06528      6.11710         0.033003      0.000000     -0.033003
      4.07446      4.04887      4.05850        -0.001893      0.098500      0.002902
      6.09814      4.10973      6.07365         0.015894     -0.000881      0.008180
      6.09394      6.06528      4.06947         0.008339      0.000000     -0.112292
      4.07454      6.06528      6.08412        -0.063334      0.000000      0.056249
      4.03753      2.02176      2.02775        -0.028584      0.000000      0.028584
 -----------------------------------------------------------------------------------
    total drift:                               -0.001801      0.000000      0.001788
 d Force = 0.1000083E-01[-0.188E-02, 0.219E-01]  d Energy = 0.1010881E-01-0.108E-03
 d Force = 0.4589539E+00[ 0.303E+00, 0.615E+00]  d Ewald  = 0.4590875E+00-0.134E-03


--------------------------------------------------------------------------------------------------------


    POTLOK:  cpu time    0.17: real time    0.17


--------------------------------------------------------------------------------------------------------


  FORCES: max atom, RMS     0.112602    0.065367
  FORCE total and by dimension    0.363950    0.112292


--------------------------------------------------------------------------------------------------------


  
 reached required accuracy - stopping structural energy minimisation
     LOOP+:  cpu time    6.45: real time    6.53
    4ORBIT:  cpu time    0.00: real time    0.00

 total amount of memory used by VASP on root node  60607. kBytes
========================================================================

   base      :    30000. kBytes
   nonl-proj :     4892. kBytes
   fftplans  :     2983. kBytes
   grid      :    21626. kBytes
   one-center:      482. kBytes
   wavefun   :      624. kBytes
 
  
  
 General timing and accounting informations for this job:
 ========================================================
  
                  Total CPU time used (sec):       47.857
                            User time (sec):       47.734
                          System time (sec):        0.123
                         Elapsed time (sec):       48.446
  
                   Maximum memory used (kb):           0.
                   Average memory used (kb):           0.
  
                          Minor page faults:        22945
                          Major page faults:           24
                 Voluntary context switches:         2253
