<?xml version="1.0" encoding="ISO-8859-1"?>
<modeling>
 <generator>
  <i name="program" type="string">vasp </i>
  <i name="version" type="string">5.2.2  </i>
  <i name="subversion" type="string">15Apr09 complex  parallel </i>
  <i name="platform" type="string">LinuxIFC </i>
  <i name="date" type="string">2017 01 11 </i>
  <i name="time" type="string">13:32:01 </i>
 </generator>
 <incar>
  <i type="string" name="PREC">accurate</i>
  <i type="int" name="IALGO">    48</i>
  <i type="int" name="IBRION">     2</i>
  <i name="EDIFFG">      0.05000000</i>
  <i type="int" name="NSW">   191</i>
  <i type="int" name="ISIF">     2</i>
  <i name="ENCUT">    300.00000000</i>
  <i name="NELECT">    101.00000000</i>
  <i type="int" name="ISMEAR">     1</i>
  <i name="SIGMA">      0.20000000</i>
  <i type="logical" name="LWAVE"> F  </i>
  <i type="logical" name="LCHARG"> F  </i>
  <i type="logical" name="LPEAD"> F  </i>
  <i type="logical" name="LCALCPOL"> F  </i>
  <i type="logical" name="LCALCEPS"> F  </i>
  <v name="EFIELD_PEAD">      0.00000000      0.00000000      0.00000000</v>
  <i type="logical" name="LEFG"> F  </i>
 </incar>
 <kpoints>
  <generation param="Gamma">
   <v type="int" name="divisions">       1        1        1 </v>
   <v name="usershift">      0.00000000       0.00000000       0.00000000 </v>
   <v name="genvec1">      1.00000000       0.00000000       0.00000000 </v>
   <v name="genvec2">      0.00000000       1.00000000       0.00000000 </v>
   <v name="genvec3">      0.00000000       0.00000000       1.00000000 </v>
   <v name="shift">      0.00000000       0.00000000       0.00000000 </v>
  </generation>
  <varray name="kpointlist" >
   <v>       0.00000000       0.00000000       0.00000000 </v>
  </varray>
  <varray name="weights" >
   <v>       1.00000000 </v>
  </varray>
 </kpoints>
 <parameters>
  <separator name="general" >
   <i type="string" name="SYSTEM">unknown system</i>
   <i type="logical" name="LCOMPAT"> F  </i>
  </separator>
  <separator name="electronic" >
   <i type="string" name="PREC">accura</i>
   <i name="ENMAX">    300.00000000</i>
   <i name="ENAUG">    516.45600000</i>
   <i name="EDIFF">      0.00010000</i>
   <i type="int" name="IALGO">    48</i>
   <i type="int" name="IWAVPR">    11</i>
   <i type="int" name="NBANDS">    72</i>
   <i name="NELECT">    101.00000000</i>
   <separator name="electronic smearing" >
    <i type="int" name="ISMEAR">     1</i>
    <i name="SIGMA">      0.20000000</i>
   </separator>
   <separator name="electronic projectors" >
    <i type="logical" name="LREAL"> F  </i>
    <v name="ROPT">      0.00000000      0.00000000</v>
    <i type="int" name="LMAXPAW">  -100</i>
    <i type="int" name="LMAXMIX">     2</i>
   </separator>
   <separator name="electronic startup" >
    <i type="int" name="ISTART">     0</i>
    <i type="int" name="ICHARG">     2</i>
    <i type="int" name="INIWAV">     1</i>
   </separator>
   <separator name="electronic spin" >
    <i type="int" name="ISPIN">     1</i>
    <i type="logical" name="LNONCOLLINEAR"> F  </i>
    <v name="MAGMOM">      1.00000000      1.00000000      1.00000000      1.00000000      1.00000000      1.00000000      1.00000000      1.00000000      1.00000000      1.00000000      1.00000000      1.00000000      1.00000000      1.00000000      1.00000000      1.00000000      1.00000000      1.00000000      1.00000000      1.00000000
      1.00000000      1.00000000      1.00000000      1.00000000      1.00000000      1.00000000      1.00000000      1.00000000      1.00000000      1.00000000      1.00000000</v>
    <i name="NUPDOWN">     -1.00000000</i>
    <i type="logical" name="LSORBIT"> F  </i>
    <v name="SAXIS">      0.00000000      0.00000000      1.00000000</v>
    <i type="logical" name="LSPIRAL"> F  </i>
    <v name="QSPIRAL">      0.00000000      0.00000000      0.00000000</v>
    <i type="logical" name="LZEROZ"> F  </i>
   </separator>
   <separator name="electronic exchange-correlation" >
    <i type="logical" name="LASPH"> F  </i>
    <i type="logical" name="LMETAGGA"> F  </i>
   </separator>
   <separator name="electronic convergence" >
    <i type="int" name="NELM">    60</i>
    <i type="int" name="NELMDL">   -12</i>
    <i type="int" name="NELMIN">     2</i>
    <i name="ENINI">    300.00000000</i>
    <separator name="electronic convergence detail" >
     <i type="logical" name="LDIAG"> T  </i>
     <i name="WEIMIN">      0.00100000</i>
     <i name="EBREAK">      0.00000038</i>
     <i name="DEPER">      0.30000000</i>
     <i type="int" name="NRMM">     4</i>
     <i name="TIME">      0.40000000</i>
    </separator>
   </separator>
   <separator name="electronic mixer" >
    <i name="AMIX">      0.40000000</i>
    <i name="BMIX">      1.00000000</i>
    <i name="AMIN">      0.10000000</i>
    <i name="AMIX_MAG">      1.60000000</i>
    <i name="BMIX_MAG">      1.00000000</i>
    <separator name="electronic mixer details" >
     <i type="int" name="IMIX">     4</i>
     <i type="int" name="MAXMIX">   -45</i>
     <i name="WC">    100.00000000</i>
     <i type="int" name="INIMIX">     1</i>
     <i type="int" name="MIXPRE">     1</i>
     <i type="int" name="MREMOVE">     5</i>
    </separator>
   </separator>
   <separator name="electronic dipolcorrection" >
    <i type="logical" name="LDIPOL"> F  </i>
    <i type="logical" name="LMONO"> F  </i>
    <i type="int" name="IDIPOL">     0</i>
    <i name="EPSILON">      1.00000000</i>
    <v name="DIPOL">   -100.00000000   -100.00000000   -100.00000000</v>
    <i name="EFIELD">      0.00000000</i>
   </separator>
  </separator>
  <separator name="grids" >
   <i type="int" name="NGX">    48</i>
   <i type="int" name="NGY">    48</i>
   <i type="int" name="NGZ">    48</i>
   <i type="int" name="NGXF">    96</i>
   <i type="int" name="NGYF">    96</i>
   <i type="int" name="NGZF">    96</i>
   <i type="logical" name="ADDGRID"> F  </i>
  </separator>
  <separator name="ionic" >
   <i type="int" name="NSW">   191</i>
   <i type="int" name="IBRION">     2</i>
   <i type="int" name="ISIF">     2</i>
   <i name="PSTRESS">      0.00000000</i>
   <i name="EDIFFG">      0.05000000</i>
   <i type="int" name="NFREE">     1</i>
   <i name="POTIM">      0.50000000</i>
   <i name="SMASS">     -3.00000000</i>
  </separator>
  <separator name="ionic md" >
   <i name="TEBEG">      0.00010000</i>
   <i name="TEEND">      0.00010000</i>
   <i type="int" name="NBLOCK">     1</i>
   <i type="int" name="KBLOCK">   191</i>
   <i type="int" name="NPACO">   256</i>
   <i name="APACO">     16.00000000</i>
  </separator>
  <separator name="symmetry" >
   <i type="int" name="ISYM">     2</i>
   <i name="SYMPREC">      0.00001000</i>
  </separator>
  <separator name="dos" >
   <i type="logical" name="LORBIT"> F  </i>
   <v name="RWIGS">     -1.00000000     -1.00000000</v>
   <i type="int" name="NEDOS">   301</i>
   <i name="EMIN">     10.00000000</i>
   <i name="EMAX">    -10.00000000</i>
   <i name="EFERMI">      0.00000000</i>
  </separator>
  <separator name="writing" >
   <i type="int" name="NWRITE">     2</i>
   <i type="logical" name="LWAVE"> F  </i>
   <i type="logical" name="LCHARG"> F  </i>
   <i type="logical" name="LPARD"> F  </i>
   <i type="logical" name="LVTOT"> F  </i>
   <i type="logical" name="LELF"> F  </i>
   <i type="logical" name="LOPTICS"> F  </i>
   <v name="STM">      0.00000000      0.00000000      0.00000000      0.00000000      0.00000000</v>
  </separator>
  <separator name="performance" >
   <i type="int" name="NPAR">    12</i>
   <i type="int" name="NSIM">     4</i>
   <i type="int" name="NBLK">    32</i>
   <i type="logical" name="LPLANE"> T  </i>
   <i type="logical" name="LSCALAPACK"> F  </i>
   <i type="logical" name="LSCAAWARE"> F  </i>
   <i type="logical" name="LSCALU"> F  </i>
   <i type="logical" name="LASYNC"> F  </i>
  </separator>
  <separator name="miscellaneous" >
   <i type="int" name="IDIOT">     3</i>
   <i type="logical" name="LMUSIC"> F  </i>
   <v name="POMASS">     26.98200000     63.54600000</v>
   <i type="logical" name="LCORR"> T  </i>
  </separator>
  <i type="logical" name="LREAL_COMPAT"> F  </i>
  <i type="logical" name="GGA_COMPAT"> T  </i>
  <i type="logical" name="LBERRY"> F  </i>
  <i type="int" name="ICORELEVEL">     0</i>
  <i type="logical" name="LDAU"> F  </i>
  <i type="int" name="I_CONSTRAINED_M">     0</i>
  <separator name="electronic exchange-correlation" >
   <i type="string" name="GGA">--</i>
   <i type="int" name="VOSKOWN">     0</i>
   <i type="logical" name="LHFCALC"> F  </i>
   <i type="logical" name="LHFONE"> F  </i>
   <i type="logical" name="LRHFCALC"> F  </i>
   <i type="logical" name="LTHOMAS"> F  </i>
   <i type="logical" name="LMODELHF"> F  </i>
   <i name="ENCUTFOCK">      0.00000000</i>
   <i name="ENCUT4O">     -1.00000000</i>
   <i type="int" name="EXXOEP">     0</i>
   <i type="int" name="FOURORBIT">     0</i>
   <i name="AEXX">      0.00000000</i>
   <i name="HFALPHA">      0.00000000</i>
   <i name="ALDAX">      1.00000000</i>
   <i name="AGGAX">      1.00000000</i>
   <i name="ALDAC">      1.00000000</i>
   <i name="AGGAC">      1.00000000</i>
   <i type="int" name="NKREDX">     1</i>
   <i type="int" name="NKREDY">     1</i>
   <i type="int" name="NKREDZ">     1</i>
   <i type="logical" name="SHIFTRED"> F  </i>
   <i type="logical" name="ODDONLY"> F  </i>
   <i type="logical" name="EVENONLY"> F  </i>
   <i type="int" name="LMAXFOCK">     0</i>
   <i type="int" name="NMAXFOCKAE">     0</i>
   <i name="HFSCREEN">      0.00000000</i>
   <i name="HFSCREENC">      0.00000000</i>
  </separator>
  <separator name="model GW" >
   <i type="int" name="MODEL_GW">     0</i>
   <i name="MODEL_EPS0">     10.23666121</i>
   <i name="MODEL_ALPHA">      1.00000000</i>
  </separator>
  <separator name="linear response parameters" >
   <i type="logical" name="LEPSILON"> F  </i>
   <i type="logical" name="LRPA"> F  </i>
   <i type="logical" name="LNABLA"> F  </i>
   <i type="logical" name="LVEL"> F  </i>
   <i type="int" name="KINTER">     0</i>
   <i name="CSHIFT">      0.10000000</i>
   <i name="OMEGAMAX">     -1.00000000</i>
  </separator>
  <separator name="orbital magnetization" >
   <i type="logical" name="ORBITALMAG"> F  </i>
   <i type="logical" name="LMAGBLOCH"> F  </i>
   <i type="logical" name="LCHIMAG"> F  </i>
   <i type="logical" name="LGAUGE"> T  </i>
   <i type="int" name="MAGATOM">     0</i>
   <v name="MAGDIPOL">      0.00000000      0.00000000      0.00000000</v>
   <v name="AVECCONST">      0.00000000      0.00000000      0.00000000</v>
  </separator>
  <separator name="response functions" >
   <i type="logical" name="LRPA"> T  </i>
   <i type="logical" name="LTCTE"> F  </i>
   <i type="logical" name="LTETE"> F  </i>
   <i type="logical" name="L2ORDER"> F  </i>
   <i type="logical" name="LGWLF"> F  </i>
   <i name="ENCUTGW">    200.00000000</i>
   <i name="ENCUTGWSOFT">     -2.00000000</i>
   <i name="ENCUTLF">     -1.00000000</i>
   <i type="int" name="LMAXMP2">    -1</i>
   <i name="SCISSOR">      0.00000000</i>
   <i type="int" name="NOMEGA">     0</i>
   <i type="int" name="NOMEGAR">     0</i>
   <i type="int" name="NBANDSGW">    -1</i>
   <i type="int" name="NBANDSLF">    -1</i>
   <i type="int" name="NELM">     1</i>
   <i type="int" name="DIM">     3</i>
   <i type="int" name="ANTIRES">     0</i>
   <i type="logical" name="LUSEW"> F  </i>
   <i name="OMEGAMAX">    -30.00000000</i>
   <i name="OMEGATL">   -200.00000000</i>
   <i type="int" name="OMEGAGRID">     0</i>
   <i name="CSHIFT">     -0.10000000</i>
   <i type="logical" name="SELFENERGY"> F  </i>
   <i type="logical" name="LSPECTRAL"> F  </i>
   <i type="logical" name="ODDONLYGW"> F  </i>
   <i type="logical" name="EVENONLYGW"> F  </i>
   <i type="int" name="NKREDLFX">     1</i>
   <i type="int" name="NKREDLFY">     1</i>
   <i type="int" name="NKREDLFZ">     1</i>
   <i type="int" name="MAXMEM">  1024</i>
   <i type="int" name="TELESCOPE">     0</i>
  </separator>
 </parameters>
 <atominfo>
  <atoms>      31 </atoms>
  <types>       2 </types>
  <array name="atoms" >
   <dimension dim="1">ion</dimension>
   <field type="string">element</field>
   <field type="int">atomtype</field>
   <set>
    <rc><c>Al</c><c>   1</c></rc>
    <rc><c>Al</c><c>   1</c></rc>
    <rc><c>Al</c><c>   1</c></rc>
    <rc><c>Al</c><c>   1</c></rc>
    <rc><c>Al</c><c>   1</c></rc>
    <rc><c>Al</c><c>   1</c></rc>
    <rc><c>Al</c><c>   1</c></rc>
    <rc><c>Al</c><c>   1</c></rc>
    <rc><c>Al</c><c>   1</c></rc>
    <rc><c>Al</c><c>   1</c></rc>
    <rc><c>Al</c><c>   1</c></rc>
    <rc><c>Al</c><c>   1</c></rc>
    <rc><c>Al</c><c>   1</c></rc>
    <rc><c>Al</c><c>   1</c></rc>
    <rc><c>Al</c><c>   1</c></rc>
    <rc><c>Al</c><c>   1</c></rc>
    <rc><c>Al</c><c>   1</c></rc>
    <rc><c>Al</c><c>   1</c></rc>
    <rc><c>Al</c><c>   1</c></rc>
    <rc><c>Al</c><c>   1</c></rc>
    <rc><c>Al</c><c>   1</c></rc>
    <rc><c>Al</c><c>   1</c></rc>
    <rc><c>Al</c><c>   1</c></rc>
    <rc><c>Al</c><c>   1</c></rc>
    <rc><c>Al</c><c>   1</c></rc>
    <rc><c>Al</c><c>   1</c></rc>
    <rc><c>Al</c><c>   1</c></rc>
    <rc><c>Al</c><c>   1</c></rc>
    <rc><c>Al</c><c>   1</c></rc>
    <rc><c>Al</c><c>   1</c></rc>
    <rc><c>Cu</c><c>   2</c></rc>
   </set>
  </array>
  <array name="atomtypes" >
   <dimension dim="1">type</dimension>
   <field type="int">atomspertype</field>
   <field type="string">element</field>
   <field>mass</field>
   <field>valence</field>
   <field type="string">pseudopotential</field>
   <set>
    <rc><c>  30</c><c>Al</c><c>     26.98200000</c><c>      3.00000000</c><c> PAW_PBE Al 04Jan2001                   </c></rc>
    <rc><c>   1</c><c>Cu</c><c>     63.54600000</c><c>     11.00000000</c><c> PAW_PBE Cu 05Jan2001                   </c></rc>
   </set>
  </array>
 </atominfo>
 <structure name="initialpos" >
  <crystal>
   <varray name="basis" >
    <v>       8.08704000       0.00000000       0.00000000 </v>
    <v>       0.00000000       8.08704000       0.00000000 </v>
    <v>       0.00000000       0.00000000       8.08704000 </v>
   </varray>
   <i name="volume">    528.89416249 </i>
   <varray name="rec_basis" >
    <v>       0.12365464       0.00000000       0.00000000 </v>
    <v>       0.00000000       0.12365464       0.00000000 </v>
    <v>       0.00000000       0.00000000       0.12365464 </v>
   </varray>
  </crystal>
  <varray name="positions" >
   <v>       0.00000000       0.00000000       0.00000000 </v>
   <v>       0.25000000       0.00000000       0.25000000 </v>
   <v>       0.25000000       0.25000000       0.00000000 </v>
   <v>       0.00000000       0.25000000       0.25000000 </v>
   <v>       0.50000000       0.00000000       0.00000000 </v>
   <v>       0.75000000       0.00000000       0.25000000 </v>
   <v>       0.75000000       0.25000000       0.00000000 </v>
   <v>       0.00000000       0.50000000       0.00000000 </v>
   <v>       0.25000000       0.50000000       0.25000000 </v>
   <v>       0.25000000       0.75000000       0.00000000 </v>
   <v>       0.00000000       0.75000000       0.25000000 </v>
   <v>       0.50000000       0.50000000       0.00000000 </v>
   <v>       0.75000000       0.50000000       0.25000000 </v>
   <v>       0.75000000       0.75000000       0.00000000 </v>
   <v>       0.50000000       0.75000000       0.25000000 </v>
   <v>       0.00000000       0.00000000       0.50000000 </v>
   <v>       0.25000000       0.00000000       0.75000000 </v>
   <v>       0.00000000       0.25000000       0.75000000 </v>
   <v>       0.50000000       0.00000000       0.50000000 </v>
   <v>       0.75000000       0.00000000       0.75000000 </v>
   <v>       0.75000000       0.25000000       0.50000000 </v>
   <v>       0.50000000       0.25000000       0.75000000 </v>
   <v>       0.00000000       0.50000000       0.50000000 </v>
   <v>       0.25000000       0.50000000       0.75000000 </v>
   <v>       0.25000000       0.75000000       0.50000000 </v>
   <v>       0.00000000       0.75000000       0.75000000 </v>
   <v>       0.50000000       0.50000000       0.50000000 </v>
   <v>       0.75000000       0.50000000       0.75000000 </v>
   <v>       0.75000000       0.75000000       0.50000000 </v>
   <v>       0.50000000       0.75000000       0.75000000 </v>
   <v>       0.50000000       0.25000000       0.25000000 </v>
  </varray>
 </structure>
 <calculation>
  <scstep>
   <time name="diag">    0.15    0.15</time>
   <time name="diis">    0.35    0.35</time>
   <time name="orth">    0.01    0.01</time>
   <time name="total">    0.68    0.68</time>
   <energy>
    <i name="alphaZ">     15.76595319 </i>
    <i name="ewald">  -2790.72364793 </i>
    <i name="hartreedc">   -760.60153274 </i>
    <i name="XCdc">   -745.21804782 </i>
    <i name="pawpsdc">   2148.67993976 </i>
    <i name="pawaedc">  -1334.04649801 </i>
    <i name="eentropy">      0.01335145 </i>
    <i name="bandstr">    771.36789571 </i>
    <i name="atom">   2997.07640482 </i>
    <i name="e_fr_energy">    302.31381843 </i>
    <i name="e_wo_entrp">    302.30046698 </i>
    <i name="e_0_energy">    302.30936795 </i>
   </energy>
  </scstep>
  <scstep>
   <time name="diag">    0.15    0.15</time>
   <time name="diis">    0.34    0.34</time>
   <time name="orth">    0.01    0.01</time>
   <time name="total">    0.50    0.72</time>
   <energy>
    <i name="e_fr_energy">    -21.04446750 </i>
    <i name="e_wo_entrp">    -21.01975106 </i>
    <i name="e_0_energy">    -21.03622868 </i>
   </energy>
  </scstep>
  <scstep>
   <time name="diag">    0.15    0.15</time>
   <time name="diis">    0.34    0.34</time>
   <time name="orth">    0.01    0.01</time>
   <time name="total">    0.50    0.50</time>
   <energy>
    <i name="e_fr_energy">    -72.88587860 </i>
    <i name="e_wo_entrp">    -72.79107464 </i>
    <i name="e_0_energy">    -72.85427728 </i>
   </energy>
  </scstep>
  <scstep>
   <time name="diag">    0.15    0.15</time>
   <time name="diis">    0.34    0.34</time>
   <time name="orth">    0.01    0.01</time>
   <time name="total">    0.50    0.50</time>
   <energy>
    <i name="e_fr_energy">    -89.02522950 </i>
    <i name="e_wo_entrp">    -89.03648853 </i>
    <i name="e_0_energy">    -89.02898251 </i>
   </energy>
  </scstep>
  <scstep>
   <time name="diag">    0.15    0.15</time>
   <time name="diis">    0.34    0.34</time>
   <time name="orth">    0.01    0.01</time>
   <time name="total">    0.50    0.50</time>
   <energy>
    <i name="e_fr_energy">    -96.85681983 </i>
    <i name="e_wo_entrp">    -96.76848059 </i>
    <i name="e_0_energy">    -96.82737342 </i>
   </energy>
  </scstep>
  <scstep>
   <time name="diag">    0.15    0.15</time>
   <time name="diis">    0.35    0.35</time>
   <time name="orth">    0.01    0.01</time>
   <time name="total">    0.51    0.51</time>
   <energy>
    <i name="e_fr_energy">   -100.70147706 </i>
    <i name="e_wo_entrp">   -100.64756256 </i>
    <i name="e_0_energy">   -100.68350556 </i>
   </energy>
  </scstep>
  <scstep>
   <time name="diag">    0.15    0.15</time>
   <time name="diis">    0.34    0.34</time>
   <time name="orth">    0.01    0.01</time>
   <time name="total">    0.50    0.51</time>
   <energy>
    <i name="e_fr_energy">   -102.76945074 </i>
    <i name="e_wo_entrp">   -102.71404574 </i>
    <i name="e_0_energy">   -102.75098241 </i>
   </energy>
  </scstep>
  <scstep>
   <time name="diag">    0.15    0.15</time>
   <time name="diis">    0.34    0.34</time>
   <time name="orth">    0.01    0.01</time>
   <time name="total">    0.50    0.50</time>
   <energy>
    <i name="e_fr_energy">   -104.00597255 </i>
    <i name="e_wo_entrp">   -103.94799100 </i>
    <i name="e_0_energy">   -103.98664537 </i>
   </energy>
  </scstep>
  <scstep>
   <time name="diag">    0.15    0.15</time>
   <time name="diis">    0.84    0.84</time>
   <time name="orth">    0.01    0.01</time>
   <time name="total">    1.00    1.01</time>
   <energy>
    <i name="e_fr_energy">   -105.88104036 </i>
    <i name="e_wo_entrp">   -105.80590155 </i>
    <i name="e_0_energy">   -105.85599409 </i>
   </energy>
  </scstep>
  <scstep>
   <time name="diag">    0.15    0.15</time>
   <time name="diis">    0.67    0.68</time>
   <time name="orth">    0.01    0.01</time>
   <time name="total">    0.83    0.84</time>
   <energy>
    <i name="e_fr_energy">   -106.04937704 </i>
    <i name="e_wo_entrp">   -106.00505122 </i>
    <i name="e_0_energy">   -106.03460177 </i>
   </energy>
  </scstep>
  <scstep>
   <time name="diag">    0.15    0.15</time>
   <time name="diis">    0.61    0.61</time>
   <time name="orth">    0.01    0.01</time>
   <time name="total">    0.78    0.78</time>
   <energy>
    <i name="e_fr_energy">   -106.06651390 </i>
    <i name="e_wo_entrp">   -106.02257139 </i>
    <i name="e_0_energy">   -106.05186640 </i>
   </energy>
  </scstep>
  <scstep>
   <time name="diag">    0.15    0.15</time>
   <time name="diis">    0.54    0.55</time>
   <time name="orth">    0.01    0.01</time>
   <time name="total">    0.84    0.84</time>
   <energy>
    <i name="e_fr_energy">   -106.06760159 </i>
    <i name="e_wo_entrp">   -106.02362990 </i>
    <i name="e_0_energy">   -106.05294436 </i>
   </energy>
  </scstep>
  <scstep>
   <time name="diag">    0.15    0.15</time>
   <time name="diis">    0.93    0.95</time>
   <time name="orth">    0.01    0.01</time>
   <time name="total">    1.39    1.41</time>
   <energy>
    <i name="e_fr_energy">   -140.89215777 </i>
    <i name="e_wo_entrp">   -140.91387581 </i>
    <i name="e_0_energy">   -140.89939711 </i>
   </energy>
  </scstep>
  <scstep>
   <time name="diag">    0.15    0.15</time>
   <time name="diis">    0.62    0.62</time>
   <time name="orth">    0.01    0.01</time>
   <time name="total">    1.08    1.08</time>
   <energy>
    <i name="e_fr_energy">   -108.35262039 </i>
    <i name="e_wo_entrp">   -108.35009548 </i>
    <i name="e_0_energy">   -108.35177875 </i>
   </energy>
  </scstep>
  <scstep>
   <time name="diag">    0.15    0.15</time>
   <time name="diis">    0.62    0.62</time>
   <time name="orth">    0.01    0.01</time>
   <time name="total">    1.07    1.08</time>
   <energy>
    <i name="e_fr_energy">   -100.78099702 </i>
    <i name="e_wo_entrp">   -100.77530064 </i>
    <i name="e_0_energy">   -100.77909823 </i>
   </energy>
  </scstep>
  <scstep>
   <time name="diag">    0.15    0.15</time>
   <time name="diis">    0.63    0.63</time>
   <time name="orth">    0.01    0.01</time>
   <time name="total">    1.09    1.09</time>
   <energy>
    <i name="e_fr_energy">   -100.77758318 </i>
    <i name="e_wo_entrp">   -100.77906822 </i>
    <i name="e_0_energy">   -100.77807819 </i>
   </energy>
  </scstep>
  <scstep>
   <time name="diag">    0.15    0.15</time>
   <time name="diis">    0.69    0.69</time>
   <time name="orth">    0.01    0.01</time>
   <time name="total">    1.16    1.16</time>
   <energy>
    <i name="e_fr_energy">   -100.74085865 </i>
    <i name="e_wo_entrp">   -100.74487597 </i>
    <i name="e_0_energy">   -100.74219776 </i>
   </energy>
  </scstep>
  <scstep>
   <time name="diag">    0.15    0.15</time>
   <time name="diis">    0.63    0.63</time>
   <time name="orth">    0.01    0.01</time>
   <time name="total">    1.09    1.09</time>
   <energy>
    <i name="e_fr_energy">   -100.65223361 </i>
    <i name="e_wo_entrp">   -100.64815269 </i>
    <i name="e_0_energy">   -100.65087330 </i>
   </energy>
  </scstep>
  <scstep>
   <time name="diag">    0.15    0.15</time>
   <time name="diis">    0.67    0.67</time>
   <time name="orth">    0.01    0.01</time>
   <time name="total">    1.13    1.13</time>
   <energy>
    <i name="e_fr_energy">   -100.58367936 </i>
    <i name="e_wo_entrp">   -100.57926782 </i>
    <i name="e_0_energy">   -100.58220885 </i>
   </energy>
  </scstep>
  <scstep>
   <time name="diag">    0.15    0.15</time>
   <time name="diis">    0.64    0.64</time>
   <time name="orth">    0.01    0.01</time>
   <time name="total">    1.10    1.10</time>
   <energy>
    <i name="e_fr_energy">   -100.55921159 </i>
    <i name="e_wo_entrp">   -100.55390905 </i>
    <i name="e_0_energy">   -100.55744407 </i>
   </energy>
  </scstep>
  <scstep>
   <time name="diag">    0.15    0.15</time>
   <time name="diis">    0.62    0.62</time>
   <time name="orth">    0.01    0.01</time>
   <time name="total">    1.08    1.08</time>
   <energy>
    <i name="e_fr_energy">   -100.55966438 </i>
    <i name="e_wo_entrp">   -100.55426241 </i>
    <i name="e_0_energy">   -100.55786373 </i>
   </energy>
  </scstep>
  <scstep>
   <time name="diag">    0.15    0.15</time>
   <time name="diis">    0.54    0.54</time>
   <time name="orth">    0.01    0.01</time>
   <time name="total">    0.87    0.87</time>
   <energy>
    <i name="alphaZ">     15.76595319 </i>
    <i name="ewald">  -2790.72364793 </i>
    <i name="hartreedc">   -731.63693871 </i>
    <i name="XCdc">   -742.52307274 </i>
    <i name="pawpsdc">   2142.15489540 </i>
    <i name="pawaedc">  -1327.99023715 </i>
    <i name="eentropy">     -0.00543041 </i>
    <i name="bandstr">    337.32239376 </i>
    <i name="atom">   2997.07640482 </i>
    <i name="e_fr_energy">   -100.55967976 </i>
    <i name="e_wo_entrp">   -100.55424935 </i>
    <i name="e_0_energy">   -100.55786963 </i>
   </energy>
  </scstep>
  <structure>
   <crystal>
    <varray name="basis" >
     <v>       8.08704000       0.00000000       0.00000000 </v>
     <v>       0.00000000       8.08704000       0.00000000 </v>
     <v>       0.00000000       0.00000000       8.08704000 </v>
    </varray>
    <i name="volume">    528.89416249 </i>
    <varray name="rec_basis" >
     <v>       0.12365464       0.00000000       0.00000000 </v>
     <v>       0.00000000       0.12365464       0.00000000 </v>
     <v>       0.00000000       0.00000000       0.12365464 </v>
    </varray>
   </crystal>
   <varray name="positions" >
    <v>       0.00000000       0.00000000       0.00000000 </v>
    <v>       0.25000000       0.00000000       0.25000000 </v>
    <v>       0.25000000       0.25000000       0.00000000 </v>
    <v>       0.00000000       0.25000000       0.25000000 </v>
    <v>       0.50000000       0.00000000       0.00000000 </v>
    <v>       0.75000000       0.00000000       0.25000000 </v>
    <v>       0.75000000       0.25000000       0.00000000 </v>
    <v>       0.00000000       0.50000000       0.00000000 </v>
    <v>       0.25000000       0.50000000       0.25000000 </v>
    <v>       0.25000000       0.75000000       0.00000000 </v>
    <v>       0.00000000       0.75000000       0.25000000 </v>
    <v>       0.50000000       0.50000000       0.00000000 </v>
    <v>       0.75000000       0.50000000       0.25000000 </v>
    <v>       0.75000000       0.75000000       0.00000000 </v>
    <v>       0.50000000       0.75000000       0.25000000 </v>
    <v>       0.00000000       0.00000000       0.50000000 </v>
    <v>       0.25000000       0.00000000       0.75000000 </v>
    <v>       0.00000000       0.25000000       0.75000000 </v>
    <v>       0.50000000       0.00000000       0.50000000 </v>
    <v>       0.75000000       0.00000000       0.75000000 </v>
    <v>       0.75000000       0.25000000       0.50000000 </v>
    <v>       0.50000000       0.25000000       0.75000000 </v>
    <v>       0.00000000       0.50000000       0.50000000 </v>
    <v>       0.25000000       0.50000000       0.75000000 </v>
    <v>       0.25000000       0.75000000       0.50000000 </v>
    <v>       0.00000000       0.75000000       0.75000000 </v>
    <v>       0.50000000       0.50000000       0.50000000 </v>
    <v>       0.75000000       0.50000000       0.75000000 </v>
    <v>       0.75000000       0.75000000       0.50000000 </v>
    <v>       0.50000000       0.75000000       0.75000000 </v>
    <v>       0.50000000       0.25000000       0.25000000 </v>
   </varray>
  </structure>
  <varray name="forces" >
   <v>      -0.12090120      -0.29637295      -0.24651283 </v>
   <v>       0.04401384       0.03589584      -0.05248871 </v>
   <v>      -0.02737855       0.00000000       0.10101770 </v>
   <v>       0.06631926       0.00000000      -0.06253838 </v>
   <v>       0.01172168      -0.00884058       0.06144692 </v>
   <v>      -0.06144692      -0.00884058      -0.01172168 </v>
   <v>       0.17478618       0.00000000      -0.17478618 </v>
   <v>      -0.12090120       0.29637295      -0.24651283 </v>
   <v>       0.04401384      -0.03589584      -0.05248871 </v>
   <v>      -0.10933360       0.00000000      -0.11991270 </v>
   <v>      -0.08694350       0.00000000      -0.11970016 </v>
   <v>       0.01172168       0.00884058       0.06144692 </v>
   <v>      -0.06144692       0.00884058      -0.01172168 </v>
   <v>       0.34787953       0.00000000      -0.34787953 </v>
   <v>      -0.00016859       0.00000000       0.00016859 </v>
   <v>      -0.09472724      -0.10799383       0.08872197 </v>
   <v>      -0.08872197      -0.10799383       0.09472724 </v>
   <v>      -0.15497950       0.00000000       0.15497950 </v>
   <v>       0.05248871       0.03589584      -0.04401384 </v>
   <v>       0.24651283      -0.29637295       0.12090120 </v>
   <v>      -0.10101770       0.00000000       0.02737855 </v>
   <v>       0.06253838       0.00000000      -0.06631926 </v>
   <v>      -0.09472724       0.10799383       0.08872197 </v>
   <v>      -0.08872197       0.10799383       0.09472724 </v>
   <v>       0.02518099       0.00000000      -0.02518099 </v>
   <v>      -0.37140658       0.00000000       0.37140658 </v>
   <v>       0.05248871      -0.03589584      -0.04401384 </v>
   <v>       0.24651283       0.29637295       0.12090120 </v>
   <v>       0.11991270       0.00000000       0.10933360 </v>
   <v>       0.11970016       0.00000000       0.08694350 </v>
   <v>      -0.04296866       0.00000000       0.04296866 </v>
  </varray>
  <varray name="stress" >
   <v>     -34.89273988       0.00000000      -0.40847394 </v>
   <v>       0.00000000     -31.56297618       0.00000000 </v>
   <v>      -0.40847394       0.00000000     -34.89273988 </v>
  </varray>
  <energy>
   <i name="e_fr_energy">   -100.55967976 </i>
   <i name="e_wo_entrp">   -100.55786963 </i>
   <i name="e_0_energy">     -0.00543041 </i>
  </energy>
  <time name="totalsc">   20.17   20.45</time>
 </calculation>
 <calculation>
  <scstep>
   <time name="diag">    0.15    0.15</time>
   <time name="diis">    0.63    0.63</time>
   <time name="orth">    0.01    0.01</time>
   <time name="total">    1.09    1.09</time>
   <energy>
    <i name="alphaZ">     15.76595319 </i>
    <i name="ewald">  -2790.61333983 </i>
    <i name="hartreedc">   -731.08725710 </i>
    <i name="XCdc">   -742.52873642 </i>
    <i name="pawpsdc">   2141.15630626 </i>
    <i name="pawaedc">  -1326.92562460 </i>
    <i name="eentropy">     -0.00642040 </i>
    <i name="bandstr">    336.53392889 </i>
    <i name="atom">   2997.07640482 </i>
    <i name="e_fr_energy">   -100.62878518 </i>
    <i name="e_wo_entrp">   -100.62236478 </i>
    <i name="e_0_energy">   -100.62664505 </i>
   </energy>
  </scstep>
  <scstep>
   <time name="diag">    0.15    0.15</time>
   <time name="diis">    0.63    0.63</time>
   <time name="orth">    0.01    0.01</time>
   <time name="total">    1.09    1.09</time>
   <energy>
    <i name="e_fr_energy">   -100.62337974 </i>
    <i name="e_wo_entrp">   -100.61911974 </i>
    <i name="e_0_energy">   -100.62195974 </i>
   </energy>
  </scstep>
  <scstep>
   <time name="diag">    0.15    0.15</time>
   <time name="diis">    0.66    0.66</time>
   <time name="orth">    0.01    0.01</time>
   <time name="total">    1.12    1.12</time>
   <energy>
    <i name="e_fr_energy">   -100.62238115 </i>
    <i name="e_wo_entrp">   -100.61616823 </i>
    <i name="e_0_energy">   -100.62031018 </i>
   </energy>
  </scstep>
  <scstep>
   <time name="diag">    0.15    0.15</time>
   <time name="diis">    0.57    0.58</time>
   <time name="orth">    0.01    0.01</time>
   <time name="total">    1.04    1.04</time>
   <energy>
    <i name="e_fr_energy">   -100.62199145 </i>
    <i name="e_wo_entrp">   -100.61587324 </i>
    <i name="e_0_energy">   -100.61995205 </i>
   </energy>
  </scstep>
  <scstep>
   <time name="diag">    0.15    0.15</time>
   <time name="diis">    0.49    0.50</time>
   <time name="orth">    0.01    0.01</time>
   <time name="total">    0.82    0.83</time>
   <energy>
    <i name="alphaZ">     15.76595319 </i>
    <i name="ewald">  -2790.61333983 </i>
    <i name="hartreedc">   -731.04638786 </i>
    <i name="XCdc">   -742.52533642 </i>
    <i name="pawpsdc">   2141.23552949 </i>
    <i name="pawaedc">  -1326.99360916 </i>
    <i name="eentropy">     -0.00606969 </i>
    <i name="bandstr">    336.48489360 </i>
    <i name="atom">   2997.07640482 </i>
    <i name="e_fr_energy">   -100.62196185 </i>
    <i name="e_wo_entrp">   -100.61589215 </i>
    <i name="e_0_energy">   -100.61993861 </i>
   </energy>
  </scstep>
  <structure>
   <crystal>
    <varray name="basis" >
     <v>       8.08704000       0.00000000       0.00000000 </v>
     <v>       0.00000000       8.08704000       0.00000000 </v>
     <v>       0.00000000       0.00000000       8.08704000 </v>
    </varray>
    <i name="volume">    528.89416249 </i>
    <varray name="rec_basis" >
     <v>       0.12365464       0.00000000       0.00000000 </v>
     <v>       0.00000000       0.12365464       0.00000000 </v>
     <v>       0.00000000       0.00000000       0.12365464 </v>
    </varray>
   </crystal>
   <varray name="positions" >
    <v>      -0.00072123      -0.00176799      -0.00147055 </v>
    <v>       0.25026256       0.00021413       0.24968688 </v>
    <v>       0.24983668       0.25000000       0.00060261 </v>
    <v>       0.00039562       0.25000000       0.24962693 </v>
    <v>       0.50006992      -0.00005274       0.00036656 </v>
    <v>       0.74963344      -0.00005274       0.24993008 </v>
    <v>       0.75104267       0.25000000      -0.00104267 </v>
    <v>      -0.00072123       0.50176799      -0.00147055 </v>
    <v>       0.25026256       0.49978587       0.24968688 </v>
    <v>       0.24934778       0.75000000      -0.00071533 </v>
    <v>      -0.00051866       0.75000000       0.24928594 </v>
    <v>       0.50006992       0.50005274       0.00036656 </v>
    <v>       0.74963344       0.50005274       0.24993008 </v>
    <v>       0.75207525       0.75000000      -0.00207525 </v>
    <v>       0.49999899       0.75000000       0.25000101 </v>
    <v>      -0.00056509      -0.00064423       0.50052926 </v>
    <v>       0.24947074      -0.00064423       0.75056509 </v>
    <v>      -0.00092452       0.25000000       0.75092452 </v>
    <v>       0.50031312       0.00021413       0.49973744 </v>
    <v>       0.75147055      -0.00176799       0.75072123 </v>
    <v>       0.74939739       0.25000000       0.50016332 </v>
    <v>       0.50037307       0.25000000       0.74960438 </v>
    <v>      -0.00056509       0.50064423       0.50052926 </v>
    <v>       0.24947074       0.50064423       0.75056509 </v>
    <v>       0.25015022       0.75000000       0.49984978 </v>
    <v>      -0.00221560       0.75000000       0.75221560 </v>
    <v>       0.50031312       0.49978587       0.49973744 </v>
    <v>       0.75147055       0.50176799       0.75072123 </v>
    <v>       0.75071533       0.75000000       0.50065222 </v>
    <v>       0.50071406       0.75000000       0.75051866 </v>
    <v>       0.49974367       0.25000000       0.25025633 </v>
   </varray>
  </structure>
  <varray name="forces" >
   <v>      -0.05102287      -0.21374777      -0.14038544 </v>
   <v>      -0.01660662      -0.00639347      -0.07966464 </v>
   <v>      -0.03657103       0.00000000       0.07530334 </v>
   <v>       0.03543909       0.00000000      -0.08074532 </v>
   <v>       0.02492346      -0.00005280       0.03615704 </v>
   <v>      -0.03615704      -0.00005280      -0.02492346 </v>
   <v>       0.12544876       0.00000000      -0.12544876 </v>
   <v>      -0.05102287       0.21374777      -0.14038544 </v>
   <v>      -0.01660662       0.00639347      -0.07966464 </v>
   <v>      -0.08135001       0.00000000      -0.09467328 </v>
   <v>      -0.06055899       0.00000000      -0.09067776 </v>
   <v>       0.02492346       0.00005280       0.03615704 </v>
   <v>      -0.03615704       0.00005280      -0.02492346 </v>
   <v>       0.22565204       0.00000000      -0.22565204 </v>
   <v>       0.00556356       0.00000000      -0.00556356 </v>
   <v>      -0.08470899      -0.10419277       0.07835837 </v>
   <v>      -0.07835837      -0.10419277       0.08470899 </v>
   <v>      -0.11834794       0.00000000       0.11834794 </v>
   <v>       0.07966464      -0.00639347       0.01660662 </v>
   <v>       0.14038544      -0.21374777       0.05102287 </v>
   <v>      -0.07530334       0.00000000       0.03657103 </v>
   <v>       0.08074532       0.00000000      -0.03543909 </v>
   <v>      -0.08470899       0.10419277       0.07835837 </v>
   <v>      -0.07835837       0.10419277       0.08470899 </v>
   <v>      -0.00256969       0.00000000       0.00256969 </v>
   <v>      -0.21676958       0.00000000       0.21676958 </v>
   <v>       0.07966464       0.00639347       0.01660662 </v>
   <v>       0.14038544       0.21374777       0.05102287 </v>
   <v>       0.09467328       0.00000000       0.08135001 </v>
   <v>       0.09067776       0.00000000       0.06055899 </v>
   <v>      -0.02296854       0.00000000       0.02296854 </v>
  </varray>
  <varray name="stress" >
   <v>     -26.68591286       0.00000000      -0.52076061 </v>
   <v>       0.00000000     -24.39638751       0.00000000 </v>
   <v>      -0.52076061       0.00000000     -26.68591286 </v>
  </varray>
  <energy>
   <i name="e_fr_energy">   -100.62196185 </i>
   <i name="e_wo_entrp">   -100.61993861 </i>
   <i name="e_0_energy">     -0.00606969 </i>
  </energy>
  <time name="totalsc">    6.61    6.63</time>
 </calculation>
 <calculation>
  <scstep>
   <time name="diag">    0.15    0.15</time>
   <time name="diis">    0.62    0.62</time>
   <time name="orth">    0.01    0.01</time>
   <time name="total">    1.08    1.08</time>
   <energy>
    <i name="alphaZ">     15.76595319 </i>
    <i name="ewald">  -2789.57786493 </i>
    <i name="hartreedc">   -731.53832712 </i>
    <i name="XCdc">   -742.49132870 </i>
    <i name="pawpsdc">   2141.23249462 </i>
    <i name="pawaedc">  -1326.98597992 </i>
    <i name="eentropy">      0.00834249 </i>
    <i name="bandstr">    335.80614118 </i>
    <i name="atom">   2997.07640482 </i>
    <i name="e_fr_energy">   -100.70416438 </i>
    <i name="e_wo_entrp">   -100.71250687 </i>
    <i name="e_0_energy">   -100.70694521 </i>
   </energy>
  </scstep>
  <scstep>
   <time name="diag">    0.15    0.15</time>
   <time name="diis">    0.63    0.63</time>
   <time name="orth">    0.01    0.01</time>
   <time name="total">    1.09    1.09</time>
   <energy>
    <i name="e_fr_energy">   -100.67669312 </i>
    <i name="e_wo_entrp">   -100.69162501 </i>
    <i name="e_0_energy">   -100.68167042 </i>
   </energy>
  </scstep>
  <scstep>
   <time name="diag">    0.15    0.15</time>
   <time name="diis">    0.67    0.67</time>
   <time name="orth">    0.01    0.01</time>
   <time name="total">    1.13    1.14</time>
   <energy>
    <i name="e_fr_energy">   -100.67353939 </i>
    <i name="e_wo_entrp">   -100.68450598 </i>
    <i name="e_0_energy">   -100.67719492 </i>
   </energy>
  </scstep>
  <scstep>
   <time name="diag">    0.15    0.15</time>
   <time name="diis">    0.61    0.61</time>
   <time name="orth">    0.01    0.01</time>
   <time name="total">    1.06    1.06</time>
   <energy>
    <i name="e_fr_energy">   -100.67248943 </i>
    <i name="e_wo_entrp">   -100.68363293 </i>
    <i name="e_0_energy">   -100.67620393 </i>
   </energy>
  </scstep>
  <scstep>
   <time name="diag">    0.15    0.15</time>
   <time name="diis">    0.56    0.56</time>
   <time name="orth">    0.01    0.01</time>
   <time name="total">    1.02    1.02</time>
   <energy>
    <i name="e_fr_energy">   -100.67230781 </i>
    <i name="e_wo_entrp">   -100.68347192 </i>
    <i name="e_0_energy">   -100.67602918 </i>
   </energy>
  </scstep>
  <scstep>
   <time name="diag">    0.15    0.15</time>
   <time name="diis">    0.47    0.47</time>
   <time name="orth">    0.01    0.01</time>
   <time name="total">    0.79    0.79</time>
   <energy>
    <i name="alphaZ">     15.76595319 </i>
    <i name="ewald">  -2789.57786493 </i>
    <i name="hartreedc">   -731.39543491 </i>
    <i name="XCdc">   -742.47916740 </i>
    <i name="pawpsdc">   2141.27731418 </i>
    <i name="pawaedc">  -1327.02499990 </i>
    <i name="eentropy">      0.01115283 </i>
    <i name="bandstr">    335.67432989 </i>
    <i name="atom">   2997.07640482 </i>
    <i name="e_fr_energy">   -100.67231223 </i>
    <i name="e_wo_entrp">   -100.68346506 </i>
    <i name="e_0_energy">   -100.67602984 </i>
   </energy>
  </scstep>
  <structure>
   <crystal>
    <varray name="basis" >
     <v>       8.08704000       0.00000000       0.00000000 </v>
     <v>       0.00000000       8.08704000       0.00000000 </v>
     <v>       0.00000000       0.00000000       8.08704000 </v>
    </varray>
    <i name="volume">    528.89416249 </i>
    <varray name="rec_basis" >
     <v>       0.12365464       0.00000000       0.00000000 </v>
     <v>       0.00000000       0.12365464       0.00000000 </v>
     <v>       0.00000000       0.00000000       0.12365464 </v>
    </varray>
   </crystal>
   <varray name="positions" >
    <v>      -0.00216492      -0.00530701      -0.00441419 </v>
    <v>       0.25078814       0.00064277       0.24906011 </v>
    <v>       0.24950975       0.25000000       0.00180888 </v>
    <v>       0.00118755       0.25000000       0.24888015 </v>
    <v>       0.50020989      -0.00015830       0.00110030 </v>
    <v>       0.74889970      -0.00015830       0.24979011 </v>
    <v>       0.75312981       0.25000000      -0.00312981 </v>
    <v>      -0.00216492       0.50530701      -0.00441419 </v>
    <v>       0.25078814       0.49935723       0.24906011 </v>
    <v>       0.24804221       0.75000000      -0.00214722 </v>
    <v>      -0.00155686       0.75000000       0.24785658 </v>
    <v>       0.50020989       0.50015830       0.00110030 </v>
    <v>       0.74889970       0.50015830       0.24979011 </v>
    <v>       0.75622932       0.75000000      -0.00622932 </v>
    <v>       0.49999698       0.75000000       0.25000302 </v>
    <v>      -0.00169624      -0.00193380       0.50158870 </v>
    <v>       0.24841130      -0.00193380       0.75169624 </v>
    <v>      -0.00277515       0.25000000       0.75277515 </v>
    <v>       0.50093989       0.00064277       0.49921186 </v>
    <v>       0.75441419      -0.00530701       0.75216492 </v>
    <v>       0.74819112       0.25000000       0.50049025 </v>
    <v>       0.50111985       0.25000000       0.74881245 </v>
    <v>      -0.00169624       0.50193380       0.50158870 </v>
    <v>       0.24841130       0.50193380       0.75169624 </v>
    <v>       0.25045090       0.75000000       0.49954910 </v>
    <v>      -0.00665060       0.75000000       0.75665060 </v>
    <v>       0.50093989       0.49935723       0.49921186 </v>
    <v>       0.75441419       0.50530701       0.75216492 </v>
    <v>       0.75214722       0.75000000       0.50195779 </v>
    <v>       0.50214342       0.75000000       0.75155686 </v>
    <v>       0.49923058       0.25000000       0.25076942 </v>
   </varray>
  </structure>
  <varray name="forces" >
   <v>       0.08414961      -0.06653207       0.07730194 </v>
   <v>      -0.13826889      -0.07179133      -0.12651143 </v>
   <v>      -0.05495083       0.00000000       0.03096592 </v>
   <v>       0.00058925       0.00000000      -0.09186469 </v>
   <v>       0.06128462       0.00356117      -0.01451485 </v>
   <v>       0.01451485       0.00356117      -0.06128462 </v>
   <v>       0.01400920       0.00000000      -0.01400920 </v>
   <v>       0.08414961       0.06653207       0.07730194 </v>
   <v>      -0.13826889       0.07179133      -0.12651143 </v>
   <v>      -0.03368135       0.00000000      -0.03810391 </v>
   <v>      -0.01603473       0.00000000      -0.05245171 </v>
   <v>       0.06128462      -0.00356117      -0.01451485 </v>
   <v>       0.01451485      -0.00356117      -0.06128462 </v>
   <v>      -0.04275760       0.00000000       0.04275760 </v>
   <v>       0.02641768       0.00000000      -0.02641768 </v>
   <v>      -0.05698510      -0.08395149       0.05887234 </v>
   <v>      -0.05887234      -0.08395149       0.05698510 </v>
   <v>      -0.01857414       0.00000000       0.01857414 </v>
   <v>       0.12651143      -0.07179133       0.13826889 </v>
   <v>      -0.07730194      -0.06653207      -0.08414961 </v>
   <v>      -0.03096592       0.00000000       0.05495083 </v>
   <v>       0.09186469       0.00000000      -0.00058925 </v>
   <v>      -0.05698510       0.08395149       0.05887234 </v>
   <v>      -0.05887234       0.08395149       0.05698510 </v>
   <v>      -0.05105123       0.00000000       0.05105123 </v>
   <v>       0.10263436       0.00000000      -0.10263436 </v>
   <v>       0.12651143       0.07179133       0.13826889 </v>
   <v>      -0.07730194       0.06653207      -0.08414961 </v>
   <v>       0.03810391       0.00000000       0.03368135 </v>
   <v>       0.05245171       0.00000000       0.01603473 </v>
   <v>       0.01188051       0.00000000      -0.01188051 </v>
  </varray>
  <varray name="stress" >
   <v>     -25.28942014       0.00000000      -0.73256313 </v>
   <v>       0.00000000     -24.29762462       0.00000000 </v>
   <v>      -0.73256313       0.00000000     -25.28942014 </v>
  </varray>
  <energy>
   <i name="e_fr_energy">   -100.67231223 </i>
   <i name="e_wo_entrp">   -100.67602984 </i>
   <i name="e_0_energy">      0.01115283 </i>
  </energy>
  <time name="totalsc">    7.63    7.64</time>
 </calculation>
 <calculation>
  <scstep>
   <time name="diag">    0.15    0.15</time>
   <time name="diis">    0.61    0.61</time>
   <time name="orth">    0.01    0.01</time>
   <time name="total">    1.07    1.07</time>
   <energy>
    <i name="alphaZ">     15.76595319 </i>
    <i name="ewald">  -2790.06448804 </i>
    <i name="hartreedc">   -730.72746932 </i>
    <i name="XCdc">   -742.45631119 </i>
    <i name="pawpsdc">   2141.31755678 </i>
    <i name="pawaedc">  -1327.06687318 </i>
    <i name="eentropy">      0.02127682 </i>
    <i name="bandstr">    335.43837419 </i>
    <i name="atom">   2997.07640482 </i>
    <i name="e_fr_energy">   -100.69557593 </i>
    <i name="e_wo_entrp">   -100.71685275 </i>
    <i name="e_0_energy">   -100.70266821 </i>
   </energy>
  </scstep>
  <scstep>
   <time name="diag">    0.18    0.18</time>
   <time name="diis">    0.58    0.61</time>
   <time name="orth">    0.01    0.01</time>
   <time name="total">    1.07    1.10</time>
   <energy>
    <i name="e_fr_energy">   -100.69249816 </i>
    <i name="e_wo_entrp">   -100.71225320 </i>
    <i name="e_0_energy">   -100.69908318 </i>
   </energy>
  </scstep>
  <scstep>
   <time name="diag">    0.15    0.15</time>
   <time name="diis">    0.65    0.65</time>
   <time name="orth">    0.01    0.01</time>
   <time name="total">    1.11    1.11</time>
   <energy>
    <i name="e_fr_energy">   -100.69229653 </i>
    <i name="e_wo_entrp">   -100.71077460 </i>
    <i name="e_0_energy">   -100.69845589 </i>
   </energy>
  </scstep>
  <scstep>
   <time name="diag">    0.15    0.15</time>
   <time name="diis">    0.49    0.49</time>
   <time name="orth">    0.01    0.01</time>
   <time name="total">    0.95    0.95</time>
   <energy>
    <i name="e_fr_energy">   -100.69219326 </i>
    <i name="e_wo_entrp">   -100.71079524 </i>
    <i name="e_0_energy">   -100.69839392 </i>
   </energy>
  </scstep>
  <scstep>
   <time name="diag">    0.15    0.15</time>
   <time name="diis">    0.43    0.43</time>
   <time name="orth">    0.01    0.01</time>
   <time name="total">    0.76    0.76</time>
   <energy>
    <i name="alphaZ">     15.76595319 </i>
    <i name="ewald">  -2790.06448804 </i>
    <i name="hartreedc">   -730.78784763 </i>
    <i name="XCdc">   -742.44700103 </i>
    <i name="pawpsdc">   2141.10955370 </i>
    <i name="pawaedc">  -1326.85924170 </i>
    <i name="eentropy">      0.01858489 </i>
    <i name="bandstr">    335.49590218 </i>
    <i name="atom">   2997.07640482 </i>
    <i name="e_fr_energy">   -100.69217962 </i>
    <i name="e_wo_entrp">   -100.71076451 </i>
    <i name="e_0_energy">   -100.69837458 </i>
   </energy>
  </scstep>
  <structure>
   <crystal>
    <varray name="basis" >
     <v>       8.08704000       0.00000000       0.00000000 </v>
     <v>       0.00000000       8.08704000       0.00000000 </v>
     <v>       0.00000000       0.00000000       8.08704000 </v>
    </varray>
    <i name="volume">    528.89416249 </i>
    <varray name="rec_basis" >
     <v>       0.12365464       0.00000000       0.00000000 </v>
     <v>       0.00000000       0.12365464       0.00000000 </v>
     <v>       0.00000000       0.00000000       0.12365464 </v>
    </varray>
   </crystal>
   <varray name="positions" >
    <v>      -0.00170915      -0.00646874      -0.00427244 </v>
    <v>       0.24972307       0.00011644       0.24789596 </v>
    <v>       0.24899473       0.25000000       0.00227409 </v>
    <v>       0.00132806       0.25000000       0.24798489 </v>
    <v>       0.50074581      -0.00014663       0.00110468 </v>
    <v>       0.74889532      -0.00014663       0.24925419 </v>
    <v>       0.75360420       0.25000000      -0.00360420 </v>
    <v>      -0.00170915       0.50646874      -0.00427244 </v>
    <v>       0.24972307       0.49988356       0.24789596 </v>
    <v>       0.24753732       0.75000000      -0.00271069 </v>
    <v>      -0.00186856       0.75000000       0.24717369 </v>
    <v>       0.50074581       0.50014663       0.00110468 </v>
    <v>       0.74889532       0.50014663       0.24925419 </v>
    <v>       0.75658338       0.75000000      -0.00658338 </v>
    <v>       0.50021732       0.75000000       0.24978268 </v>
    <v>      -0.00236594      -0.00285589       0.50226190 </v>
    <v>       0.24773810      -0.00285589       0.75236594 </v>
    <v>      -0.00324717       0.25000000       0.75324717 </v>
    <v>       0.50210404       0.00011644       0.50027693 </v>
    <v>       0.75427244      -0.00646874       0.75170915 </v>
    <v>       0.74772591       0.25000000       0.50100527 </v>
    <v>       0.50201511       0.25000000       0.74867194 </v>
    <v>      -0.00236594       0.50285589       0.50226190 </v>
    <v>       0.24773810       0.50285589       0.75236594 </v>
    <v>       0.25007592       0.75000000       0.49992408 </v>
    <v>      -0.00655258       0.75000000       0.75655258 </v>
    <v>       0.50210404       0.49988356       0.50027693 </v>
    <v>       0.75427244       0.50646874       0.75170915 </v>
    <v>       0.75271069       0.75000000       0.50246268 </v>
    <v>       0.50282631       0.75000000       0.75186856 </v>
    <v>       0.49924198       0.25000000       0.25075802 </v>
   </varray>
  </structure>
  <varray name="forces" >
   <v>       0.05168630      -0.03927884       0.04057804 </v>
   <v>      -0.08344024      -0.08377639      -0.07831859 </v>
   <v>      -0.02482645       0.00000000      -0.00303461 </v>
   <v>      -0.02148317       0.00000000      -0.04259905 </v>
   <v>       0.03080227       0.00216600      -0.02167038 </v>
   <v>       0.02167038       0.00216600      -0.03080227 </v>
   <v>       0.01457429       0.00000000      -0.01457429 </v>
   <v>       0.05168630       0.03927884       0.04057804 </v>
   <v>      -0.08344024       0.08377639      -0.07831859 </v>
   <v>       0.02306163       0.00000000      -0.02692461 </v>
   <v>      -0.02901346       0.00000000      -0.00619771 </v>
   <v>       0.03080227      -0.00216600      -0.02167038 </v>
   <v>       0.02167038      -0.00216600      -0.03080227 </v>
   <v>      -0.02939386       0.00000000       0.02939386 </v>
   <v>      -0.00586752       0.00000000       0.00586752 </v>
   <v>      -0.06071430      -0.04967730       0.02779539 </v>
   <v>      -0.02779539      -0.04967730       0.06071430 </v>
   <v>      -0.01269934       0.00000000       0.01269934 </v>
   <v>       0.07831859      -0.08377639       0.08344024 </v>
   <v>      -0.04057804      -0.03927884      -0.05168630 </v>
   <v>       0.00303461       0.00000000       0.02482645 </v>
   <v>       0.04259905       0.00000000       0.02148317 </v>
   <v>      -0.06071430       0.04967730       0.02779539 </v>
   <v>      -0.02779539       0.04967730       0.06071430 </v>
   <v>      -0.00451220       0.00000000       0.00451220 </v>
   <v>       0.07561902       0.00000000      -0.07561902 </v>
   <v>       0.07831859       0.08377639       0.08344024 </v>
   <v>      -0.04057804       0.03927884      -0.05168630 </v>
   <v>       0.02692461       0.00000000      -0.02306163 </v>
   <v>       0.00619771       0.00000000       0.02901346 </v>
   <v>      -0.00411405       0.00000000       0.00411405 </v>
  </varray>
  <varray name="stress" >
   <v>     -25.83924564       0.00000000      -0.98699924 </v>
   <v>       0.00000000     -22.72009602       0.00000000 </v>
   <v>      -0.98699924       0.00000000     -25.83924564 </v>
  </varray>
  <energy>
   <i name="e_fr_energy">   -100.69217962 </i>
   <i name="e_wo_entrp">   -100.69837458 </i>
   <i name="e_0_energy">      0.01858489 </i>
  </energy>
  <time name="totalsc">    6.40    6.44</time>
 </calculation>
 <calculation>
  <scstep>
   <time name="diag">    0.15    0.15</time>
   <time name="diis">    0.63    0.63</time>
   <time name="orth">    0.01    0.01</time>
   <time name="total">    1.09    1.09</time>
   <energy>
    <i name="alphaZ">     15.76595319 </i>
    <i name="ewald">  -2790.52357554 </i>
    <i name="hartreedc">   -729.96967543 </i>
    <i name="XCdc">   -742.41097775 </i>
    <i name="pawpsdc">   2141.07255955 </i>
    <i name="pawaedc">  -1326.81510119 </i>
    <i name="eentropy">      0.02603624 </i>
    <i name="bandstr">    335.06950665 </i>
    <i name="atom">   2997.07640482 </i>
    <i name="e_fr_energy">   -100.70886945 </i>
    <i name="e_wo_entrp">   -100.73490569 </i>
    <i name="e_0_energy">   -100.71754820 </i>
   </energy>
  </scstep>
  <scstep>
   <time name="diag">    0.15    0.15</time>
   <time name="diis">    0.63    0.63</time>
   <time name="orth">    0.01    0.01</time>
   <time name="total">    1.09    1.09</time>
   <energy>
    <i name="e_fr_energy">   -100.70290412 </i>
    <i name="e_wo_entrp">   -100.72841787 </i>
    <i name="e_0_energy">   -100.71140870 </i>
   </energy>
  </scstep>
  <scstep>
   <time name="diag">    0.15    0.15</time>
   <time name="diis">    0.68    0.68</time>
   <time name="orth">    0.01    0.01</time>
   <time name="total">    1.14    1.14</time>
   <energy>
    <i name="e_fr_energy">   -100.70251433 </i>
    <i name="e_wo_entrp">   -100.72635456 </i>
    <i name="e_0_energy">   -100.71046107 </i>
   </energy>
  </scstep>
  <scstep>
   <time name="diag">    0.15    0.15</time>
   <time name="diis">    0.57    0.57</time>
   <time name="orth">    0.01    0.01</time>
   <time name="total">    1.03    1.03</time>
   <energy>
    <i name="e_fr_energy">   -100.70232003 </i>
    <i name="e_wo_entrp">   -100.72634082 </i>
    <i name="e_0_energy">   -100.71032696 </i>
   </energy>
  </scstep>
  <scstep>
   <time name="diag">    0.15    0.15</time>
   <time name="diis">    0.45    0.45</time>
   <time name="orth">    0.01    0.01</time>
   <time name="total">    0.77    0.78</time>
   <energy>
    <i name="alphaZ">     15.76595319 </i>
    <i name="ewald">  -2790.52357554 </i>
    <i name="hartreedc">   -730.08103489 </i>
    <i name="XCdc">   -742.39512740 </i>
    <i name="pawpsdc">   2140.79730919 </i>
    <i name="pawaedc">  -1326.54422682 </i>
    <i name="eentropy">      0.02398991 </i>
    <i name="bandstr">    335.17801910 </i>
    <i name="atom">   2997.07640482 </i>
    <i name="e_fr_energy">   -100.70228843 </i>
    <i name="e_wo_entrp">   -100.72627834 </i>
    <i name="e_0_energy">   -100.71028507 </i>
   </energy>
  </scstep>
  <structure>
   <crystal>
    <varray name="basis" >
     <v>       8.08704000       0.00000000       0.00000000 </v>
     <v>       0.00000000       8.08704000       0.00000000 </v>
     <v>       0.00000000       0.00000000       8.08704000 </v>
    </varray>
    <i name="volume">    528.89416249 </i>
    <varray name="rec_basis" >
     <v>       0.12365464       0.00000000       0.00000000 </v>
     <v>       0.00000000       0.12365464       0.00000000 </v>
     <v>       0.00000000       0.00000000       0.12365464 </v>
    </varray>
   </crystal>
   <varray name="positions" >
    <v>      -0.00103517      -0.00818667      -0.00406282 </v>
    <v>       0.24814810      -0.00066188       0.24617446 </v>
    <v>       0.24823314       0.25000000       0.00296203 </v>
    <v>       0.00153585       0.25000000       0.24666100 </v>
    <v>       0.50153830      -0.00012937       0.00111115 </v>
    <v>       0.74888885      -0.00012937       0.24846170 </v>
    <v>       0.75430570       0.25000000      -0.00430570 </v>
    <v>      -0.00103517       0.50818667      -0.00406282 </v>
    <v>       0.24814810       0.50066188       0.24617446 </v>
    <v>       0.24679069       0.75000000      -0.00354394 </v>
    <v>      -0.00232951       0.75000000       0.24616385 </v>
    <v>       0.50153830       0.50012937       0.00111115 </v>
    <v>       0.74888885       0.50012937       0.24846170 </v>
    <v>       0.75710697       0.75000000      -0.00710697 </v>
    <v>       0.50054315       0.75000000       0.24945685 </v>
    <v>      -0.00335628      -0.00421946       0.50325739 </v>
    <v>       0.24674261      -0.00421946       0.75335628 </v>
    <v>      -0.00394518       0.25000000       0.75394518 </v>
    <v>       0.50382554      -0.00066188       0.50185190 </v>
    <v>       0.75406282      -0.00818667       0.75103517 </v>
    <v>       0.74703797       0.25000000       0.50176686 </v>
    <v>       0.50333900       0.25000000       0.74846415 </v>
    <v>      -0.00335628       0.50421946       0.50325739 </v>
    <v>       0.24674261       0.50421946       0.75335628 </v>
    <v>       0.24952141       0.75000000       0.50047859 </v>
    <v>      -0.00640764       0.75000000       0.75640764 </v>
    <v>       0.50382554       0.50066188       0.50185190 </v>
    <v>       0.75406282       0.50818667       0.75103517 </v>
    <v>       0.75354394       0.75000000       0.50320931 </v>
    <v>       0.50383615       0.75000000       0.75232951 </v>
    <v>       0.49925883       0.25000000       0.25074117 </v>
   </varray>
  </structure>
  <varray name="forces" >
   <v>      -0.00818010       0.00088064      -0.01589390 </v>
   <v>      -0.00290194      -0.09850033       0.00189263 </v>
   <v>       0.02246771       0.00000000      -0.06040201 </v>
   <v>      -0.05601995       0.00000000       0.04089874 </v>
   <v>      -0.00601525      -0.00384188      -0.03328214 </v>
   <v>       0.03328214      -0.00384188       0.00601525 </v>
   <v>       0.01070858       0.00000000      -0.01070858 </v>
   <v>      -0.00818010      -0.00088064      -0.01589390 </v>
   <v>      -0.00290194       0.09850033       0.00189263 </v>
   <v>       0.11229240       0.00000000      -0.00833852 </v>
   <v>      -0.05624893       0.00000000       0.06333423 </v>
   <v>      -0.00601525       0.00384188      -0.03328214 </v>
   <v>       0.03328214       0.00384188       0.00601525 </v>
   <v>      -0.01546755       0.00000000       0.01546755 </v>
   <v>      -0.04282490       0.00000000       0.04282490 </v>
   <v>      -0.05561385       0.00858769      -0.02121299 </v>
   <v>       0.02121299       0.00858769       0.05561385 </v>
   <v>       0.00391678       0.00000000      -0.00391678 </v>
   <v>      -0.00189263      -0.09850033       0.00290194 </v>
   <v>       0.01589390       0.00088064       0.00818010 </v>
   <v>       0.06040201       0.00000000      -0.02246771 </v>
   <v>      -0.04089874       0.00000000       0.05601995 </v>
   <v>      -0.05561385      -0.00858769      -0.02121299 </v>
   <v>       0.02121299      -0.00858769       0.05561385 </v>
   <v>       0.06067890       0.00000000      -0.06067890 </v>
   <v>       0.03300317       0.00000000      -0.03300317 </v>
   <v>      -0.00189263       0.09850033       0.00290194 </v>
   <v>       0.01589390      -0.00088064       0.00818010 </v>
   <v>       0.00833852       0.00000000      -0.11229240 </v>
   <v>      -0.06333423       0.00000000       0.05624893 </v>
   <v>      -0.02858429       0.00000000       0.02858429 </v>
  </varray>
  <varray name="stress" >
   <v>     -25.98768213       0.00000000      -1.41539501 </v>
   <v>       0.00000000     -19.77733060       0.00000000 </v>
   <v>      -1.41539501       0.00000000     -25.98768213 </v>
  </varray>
  <energy>
   <i name="e_fr_energy">   -100.70228843 </i>
   <i name="e_wo_entrp">   -100.71028507 </i>
   <i name="e_0_energy">      0.02398991 </i>
  </energy>
  <time name="totalsc">    6.45    6.53</time>
  <eigenvalues>
   <array>
    <dimension dim="1">band</dimension>
    <dimension dim="2">kpoint</dimension>
    <dimension dim="3">spin</dimension>
    <field>eigene</field>
    <field>occ</field>
    <set>
     <set comment="spin 1">
      <set comment="kpoint 1">
       <r>   -3.4892    1.0000 </r>
       <r>   -1.3913    1.0000 </r>
       <r>   -1.3091    1.0000 </r>
       <r>   -1.3059    1.0000 </r>
       <r>   -1.2832    1.0000 </r>
       <r>   -1.1725    1.0000 </r>
       <r>   -0.9185    1.0000 </r>
       <r>    0.7449    1.0000 </r>
       <r>    0.8434    1.0000 </r>
       <r>    0.8551    1.0000 </r>
       <r>    0.8783    1.0000 </r>
       <r>    0.8962    1.0000 </r>
       <r>    0.8980    1.0000 </r>
       <r>    0.9112    1.0000 </r>
       <r>    0.9708    1.0000 </r>
       <r>    1.0844    1.0000 </r>
       <r>    1.0848    1.0000 </r>
       <r>    1.3942    1.0000 </r>
       <r>    1.9332    1.0000 </r>
       <r>    2.9585    1.0000 </r>
       <r>    2.9618    1.0000 </r>
       <r>    3.0109    1.0000 </r>
       <r>    3.1244    1.0000 </r>
       <r>    3.1816    1.0000 </r>
       <r>    3.2725    1.0000 </r>
       <r>    3.4303    1.0000 </r>
       <r>    3.6097    1.0000 </r>
       <r>    3.8865    1.0000 </r>
       <r>    3.9770    1.0000 </r>
       <r>    4.1240    1.0000 </r>
       <r>    4.1440    1.0000 </r>
       <r>    4.4983    1.0000 </r>
       <r>    4.7662    1.0000 </r>
       <r>    4.8047    1.0000 </r>
       <r>    4.8407    1.0000 </r>
       <r>    6.1117    1.0000 </r>
       <r>    6.1209    1.0000 </r>
       <r>    6.4195    1.0000 </r>
       <r>    6.6847    1.0000 </r>
       <r>    6.7078    1.0000 </r>
       <r>    6.7097    1.0000 </r>
       <r>    6.7581    1.0000 </r>
       <r>    6.7644    1.0000 </r>
       <r>    6.8020    1.0000 </r>
       <r>    6.8996    1.0000 </r>
       <r>    6.9287    1.0000 </r>
       <r>    6.9493    1.0000 </r>
       <r>    7.1852    1.0004 </r>
       <r>    7.2362    1.0012 </r>
       <r>    7.2582    1.0019 </r>
       <r>    7.7235    0.5487 </r>
       <r>    7.8661    0.0568 </r>
       <r>    7.9594   -0.0336 </r>
       <r>    7.9935   -0.0348 </r>
       <r>    8.0545   -0.0232 </r>
       <r>    8.0808   -0.0173 </r>
       <r>    8.6115    0.0000 </r>
       <r>    8.6392    0.0000 </r>
       <r>    8.6779    0.0000 </r>
       <r>    8.6982    0.0000 </r>
       <r>    8.7185    0.0000 </r>
       <r>    8.7277    0.0000 </r>
       <r>    8.8898    0.0000 </r>
       <r>    8.9072    0.0000 </r>
       <r>    8.9582    0.0000 </r>
       <r>    8.9794    0.0000 </r>
       <r>    9.0029    0.0000 </r>
       <r>    9.1691    0.0000 </r>
       <r>    9.2298    0.0000 </r>
       <r>    9.3274    0.0000 </r>
       <r>    9.4187    0.0000 </r>
       <r>    9.4853    0.0000 </r>
      </set>
     </set>
    </set>
   </array>
  </eigenvalues>
  <separator name="orbital magnetization" >
   <v name="MAGDIPOLOUT">      0.00000000      0.00000000      0.00000000</v>
  </separator>
  <dos>
   <i name="efermi">      7.73506163 </i>
   <total>
    <array>
     <dimension dim="1">gridpoints</dimension>
     <dimension dim="2">spin</dimension>
     <field>energy</field>
     <field>total</field>
     <field>integrated</field>
     <set>
      <set comment="spin 1">
       <r>  -5.4892   0.0000   0.0000 </r>
       <r>  -5.4326   0.0000   0.0000 </r>
       <r>  -5.3760   0.0000   0.0000 </r>
       <r>  -5.3194   0.0000   0.0000 </r>
       <r>  -5.2628   0.0000   0.0000 </r>
       <r>  -5.2063   0.0000   0.0000 </r>
       <r>  -5.1497   0.0000   0.0000 </r>
       <r>  -5.0931   0.0000   0.0000 </r>
       <r>  -5.0365   0.0000   0.0000 </r>
       <r>  -4.9799   0.0000   0.0000 </r>
       <r>  -4.9234   0.0000   0.0000 </r>
       <r>  -4.8668   0.0000   0.0000 </r>
       <r>  -4.8102   0.0000   0.0000 </r>
       <r>  -4.7536   0.0000   0.0000 </r>
       <r>  -4.6970   0.0000   0.0000 </r>
       <r>  -4.6404   0.0000   0.0000 </r>
       <r>  -4.5839   0.0000   0.0000 </r>
       <r>  -4.5273   0.0000   0.0000 </r>
       <r>  -4.4707   0.0000   0.0000 </r>
       <r>  -4.4141   0.0000   0.0000 </r>
       <r>  -4.3575   0.0000   0.0000 </r>
       <r>  -4.3010   0.0000   0.0000 </r>
       <r>  -4.2444   0.0000   0.0000 </r>
       <r>  -4.1878  -0.0001   0.0000 </r>
       <r>  -4.1312  -0.0008  -0.0001 </r>
       <r>  -4.0746  -0.0040  -0.0003 </r>
       <r>  -4.0180  -0.0160  -0.0012 </r>
       <r>  -3.9615  -0.0533  -0.0042 </r>
       <r>  -3.9049  -0.1431  -0.0123 </r>
       <r>  -3.8483  -0.2986  -0.0292 </r>
       <r>  -3.7917  -0.4411  -0.0542 </r>
       <r>  -3.7351  -0.2960  -0.0709 </r>
       <r>  -3.6786   0.5919  -0.0374 </r>
       <r>  -3.6220   2.5458   0.1066 </r>
       <r>  -3.5654   5.2544   0.4039 </r>
       <r>  -3.5088   7.6122   0.8346 </r>
       <r>  -3.4522   8.3440   1.3068 </r>
       <r>  -3.3957   7.0131   1.7036 </r>
       <r>  -3.3391   4.4006   1.9526 </r>
       <r>  -3.2825   1.8373   2.0565 </r>
       <r>  -3.2259   0.2144   2.0686 </r>
       <r>  -3.1693  -0.3966   2.0462 </r>
       <r>  -3.1127  -0.4108   2.0230 </r>
       <r>  -3.0562  -0.2458   2.0091 </r>
       <r>  -2.9996  -0.1085   2.0029 </r>
       <r>  -2.9430  -0.0378   2.0008 </r>
       <r>  -2.8864  -0.0107   2.0002 </r>
       <r>  -2.8298  -0.0025   2.0000 </r>
       <r>  -2.7733  -0.0005   2.0000 </r>
       <r>  -2.7167  -0.0001   2.0000 </r>
       <r>  -2.6601   0.0000   2.0000 </r>
       <r>  -2.6035   0.0000   2.0000 </r>
       <r>  -2.5469   0.0000   2.0000 </r>
       <r>  -2.4903   0.0000   2.0000 </r>
       <r>  -2.4338   0.0000   2.0000 </r>
       <r>  -2.3772   0.0000   2.0000 </r>
       <r>  -2.3206   0.0000   2.0000 </r>
       <r>  -2.2640   0.0000   2.0000 </r>
       <r>  -2.2074   0.0000   2.0000 </r>
       <r>  -2.1509   0.0000   2.0000 </r>
       <r>  -2.0943  -0.0001   2.0000 </r>
       <r>  -2.0377  -0.0008   1.9999 </r>
       <r>  -1.9811  -0.0043   1.9997 </r>
       <r>  -1.9245  -0.0187   1.9986 </r>
       <r>  -1.8679  -0.0682   1.9948 </r>
       <r>  -1.8114  -0.2069   1.9831 </r>
       <r>  -1.7548  -0.5133   1.9540 </r>
       <r>  -1.6982  -1.0076   1.8970 </r>
       <r>  -1.6416  -1.4331   1.8159 </r>
       <r>  -1.5850  -0.9793   1.7605 </r>
       <r>  -1.5285   1.7134   1.8575 </r>
       <r>  -1.4719   7.8444   2.3013 </r>
       <r>  -1.4153  17.1512   3.2718 </r>
       <r>  -1.3587  27.0765   4.8038 </r>
       <r>  -1.3021  33.6530   6.7079 </r>
       <r>  -1.2456  33.9487   8.6288 </r>
       <r>  -1.1890  28.1528  10.2217 </r>
       <r>  -1.1324  19.4527  11.3224 </r>
       <r>  -1.0758  11.8540  11.9931 </r>
       <r>  -1.0192   7.7465  12.4314 </r>
       <r>  -0.9626   6.8871  12.8211 </r>
       <r>  -0.9061   7.2283  13.2301 </r>
       <r>  -0.8495   6.7693  13.6131 </r>
       <r>  -0.7929   4.9410  13.8927 </r>
       <r>  -0.7363   2.5442  14.0366 </r>
       <r>  -0.6797   0.6544  14.0737 </r>
       <r>  -0.6232  -0.2747  14.0581 </r>
       <r>  -0.5666  -0.4578  14.0322 </r>
       <r>  -0.5100  -0.3233  14.0139 </r>
       <r>  -0.4534  -0.1600  14.0049 </r>
       <r>  -0.3968  -0.0613  14.0014 </r>
       <r>  -0.3402  -0.0189  14.0003 </r>
       <r>  -0.2837  -0.0048  14.0001 </r>
       <r>  -0.2271  -0.0010  14.0000 </r>
       <r>  -0.1705  -0.0002  14.0000 </r>
       <r>  -0.1139   0.0000  14.0000 </r>
       <r>  -0.0573   0.0000  14.0000 </r>
       <r>  -0.0008   0.0000  14.0000 </r>
       <r>   0.0558  -0.0002  14.0000 </r>
       <r>   0.1124  -0.0012  13.9999 </r>
       <r>   0.1690  -0.0058  13.9996 </r>
       <r>   0.2256  -0.0242  13.9982 </r>
       <r>   0.2822  -0.0848  13.9934 </r>
       <r>   0.3387  -0.2490  13.9793 </r>
       <r>   0.3953  -0.6083  13.9449 </r>
       <r>   0.4519  -1.2106  13.8764 </r>
       <r>   0.5085  -1.8554  13.7714 </r>
       <r>   0.5651  -1.7693  13.6713 </r>
       <r>   0.6216   0.6215  13.7065 </r>
       <r>   0.6782   7.3522  14.1225 </r>
       <r>   0.7348  19.6122  15.2322 </r>
       <r>   0.7914  35.9158  17.2644 </r>
       <r>   0.8480  51.4647  20.1763 </r>
       <r>   0.9045  60.2951  23.5879 </r>
       <r>   0.9611  59.1549  26.9350 </r>
       <r>   1.0177  49.5702  29.7397 </r>
       <r>   1.0743  36.1218  31.7836 </r>
       <r>   1.1309  23.1432  33.0931 </r>
       <r>   1.1875  13.1444  33.8368 </r>
       <r>   1.2440   7.1802  34.2430 </r>
       <r>   1.3006   5.2073  34.5377 </r>
       <r>   1.3572   5.8764  34.8702 </r>
       <r>   1.4138   6.9313  35.2624 </r>
       <r>   1.4704   6.5835  35.6349 </r>
       <r>   1.5269   4.5976  35.8950 </r>
       <r>   1.5835   2.0204  36.0093 </r>
       <r>   1.6401   0.0798  36.0138 </r>
       <r>   1.6967  -0.5255  35.9841 </r>
       <r>   1.7533   0.3977  36.0066 </r>
       <r>   1.8099   2.6686  36.1576 </r>
       <r>   1.8664   5.5683  36.4727 </r>
       <r>   1.9230   7.8217  36.9152 </r>
       <r>   1.9796   8.2416  37.3815 </r>
       <r>   2.0362   6.6260  37.7565 </r>
       <r>   2.0928   3.9332  37.9790 </r>
       <r>   2.1493   1.4882  38.0632 </r>
       <r>   2.2059   0.0497  38.0660 </r>
       <r>   2.2625  -0.4275  38.0418 </r>
       <r>   2.3191  -0.3891  38.0198 </r>
       <r>   2.3757  -0.2275  38.0069 </r>
       <r>   2.4323  -0.1301  37.9996 </r>
       <r>   2.4888  -0.1597  37.9906 </r>
       <r>   2.5454  -0.3656  37.9699 </r>
       <r>   2.6020  -0.7874  37.9253 </r>
       <r>   2.6586  -1.2848  37.8526 </r>
       <r>   2.7152  -1.2485  37.7820 </r>
       <r>   2.7717   0.4906  37.8097 </r>
       <r>   2.8283   5.0917  38.0978 </r>
       <r>   2.8849  12.5400  38.8074 </r>
       <r>   2.9415  20.9583  39.9932 </r>
       <r>   2.9981  27.5128  41.5499 </r>
       <r>   3.0546  30.3768  43.2687 </r>
       <r>   3.1112  29.7672  44.9530 </r>
       <r>   3.1678  27.1023  46.4865 </r>
       <r>   3.2244  23.5953  47.8215 </r>
       <r>   3.2810  19.8653  48.9455 </r>
       <r>   3.3376  16.3892  49.8729 </r>
       <r>   3.3941  13.6918  50.6476 </r>
       <r>   3.4507  12.0345  51.3285 </r>
       <r>   3.5073  11.1643  51.9602 </r>
       <r>   3.5639  10.4344  52.5506 </r>
       <r>   3.6205   9.2282  53.0727 </r>
       <r>   3.6770   7.5382  53.4993 </r>
       <r>   3.7336   6.2618  53.8536 </r>
       <r>   3.7902   6.6507  54.2299 </r>
       <r>   3.8468   9.1847  54.7496 </r>
       <r>   3.9034  13.0661  55.4889 </r>
       <r>   3.9600  16.9322  56.4469 </r>
       <r>   4.0165  19.8273  57.5688 </r>
       <r>   4.0731  21.2397  58.7705 </r>
       <r>   4.1297  20.5626  59.9340 </r>
       <r>   4.1863  17.2964  60.9127 </r>
       <r>   4.2429  12.0555  61.5948 </r>
       <r>   4.2994   6.8731  61.9837 </r>
       <r>   4.3560   3.9250  62.2058 </r>
       <r>   4.4126   3.8156  62.4216 </r>
       <r>   4.4692   5.2426  62.7183 </r>
       <r>   4.5258   6.4790  63.0849 </r>
       <r>   4.5824   7.2562  63.4954 </r>
       <r>   4.6389   9.0706  64.0087 </r>
       <r>   4.6955  13.3378  64.7633 </r>
       <r>   4.7521  19.1664  65.8478 </r>
       <r>   4.8087  23.3128  67.1669 </r>
       <r>   4.8653  22.7483  68.4540 </r>
       <r>   4.9218  17.3158  69.4338 </r>
       <r>   4.9784   9.7756  69.9869 </r>
       <r>   5.0350   3.4317  70.1811 </r>
       <r>   5.0916  -0.0990  70.1755 </r>
       <r>   5.1482  -1.1787  70.1088 </r>
       <r>   5.2047  -1.0118  70.0515 </r>
       <r>   5.2613  -0.5629  70.0197 </r>
       <r>   5.3179  -0.2381  70.0062 </r>
       <r>   5.3745  -0.0807  70.0016 </r>
       <r>   5.4311  -0.0228  70.0003 </r>
       <r>   5.4877  -0.0076  69.9999 </r>
       <r>   5.5442  -0.0123  69.9992 </r>
       <r>   5.6008  -0.0437  69.9967 </r>
       <r>   5.6574  -0.1379  69.9889 </r>
       <r>   5.7140  -0.3496  69.9691 </r>
       <r>   5.7706  -0.6800  69.9307 </r>
       <r>   5.8271  -0.8967  69.8799 </r>
       <r>   5.8837  -0.3501  69.8601 </r>
       <r>   5.9403   1.8709  69.9660 </r>
       <r>   5.9969   6.1701  70.3151 </r>
       <r>   6.0535  11.5063  70.9661 </r>
       <r>   6.1101  15.4800  71.8420 </r>
       <r>   6.1666  16.0009  72.7474 </r>
       <r>   6.2232  13.1699  73.4926 </r>
       <r>   6.2798   9.2334  74.0150 </r>
       <r>   6.3364   6.4608  74.3806 </r>
       <r>   6.3930   5.3426  74.6828 </r>
       <r>   6.4495   5.2136  74.9778 </r>
       <r>   6.5061   6.4084  75.3404 </r>
       <r>   6.5627  11.0072  75.9632 </r>
       <r>   6.6193  20.7327  77.1363 </r>
       <r>   6.6759  34.1098  79.0663 </r>
       <r>   6.7325  46.3596  81.6894 </r>
       <r>   6.7890  52.6023  84.6657 </r>
       <r>   6.8456  51.1013  87.5571 </r>
       <r>   6.9022  43.5340  90.0204 </r>
       <r>   6.9588  33.1408  91.8955 </r>
       <r>   7.0154  23.3793  93.2184 </r>
       <r>   7.0719  17.3745  94.2014 </r>
       <r>   7.1285  16.6715  95.1447 </r>
       <r>   7.1851  19.7028  96.2596 </r>
       <r>   7.2417  22.3298  97.5230 </r>
       <r>   7.2983  20.9189  98.7066 </r>
       <r>   7.3548  15.1261  99.5625 </r>
       <r>   7.4114   7.6858  99.9974 </r>
       <r>   7.4680   1.8632 100.1028 </r>
       <r>   7.5246  -0.6575 100.0656 </r>
       <r>   7.5812  -0.0011 100.0655 </r>
       <r>   7.6378   2.7762 100.2226 </r>
       <r>   7.6943   6.5322 100.5922 </r>
       <r>   7.7509  10.6055 101.1923 </r>
       <r>   7.8075  15.1044 102.0469 </r>
       <r>   7.8641  20.5291 103.2085 </r>
       <r>   7.9207  26.6815 104.7182 </r>
       <r>   7.9772  31.8377 106.5196 </r>
       <r>   8.0338  33.3543 108.4068 </r>
       <r>   8.0904  29.5675 110.0798 </r>
       <r>   8.1470  21.3221 111.2862 </r>
       <r>   8.2036  11.5769 111.9413 </r>
       <r>   8.2602   3.4017 112.1338 </r>
       <r>   8.3167  -1.6844 112.0384 </r>
       <r>   8.3733  -3.5596 111.8370 </r>
       <r>   8.4299  -2.0762 111.7196 </r>
       <r>   8.4865   3.7136 111.9297 </r>
       <r>   8.5431  14.4270 112.7460 </r>
       <r>   8.5996  28.2621 114.3451 </r>
       <r>   8.6562  40.6167 116.6433 </r>
       <r>   8.7128  46.9307 119.2987 </r>
       <r>   8.7694  46.5085 121.9302 </r>
       <r>   8.8260  42.9912 124.3627 </r>
       <r>   8.8826  40.4395 126.6508 </r>
       <r>   8.9391  39.3619 128.8780 </r>
       <r>   8.9957  37.2469 130.9855 </r>
       <r>   9.0523  32.4799 132.8232 </r>
       <r>   9.1089  26.5546 134.3257 </r>
       <r>   9.1655  22.3167 135.5885 </r>
       <r>   9.2220  21.0848 136.7815 </r>
       <r>   9.2786  21.9912 138.0258 </r>
       <r>   9.3352  23.3225 139.3454 </r>
       <r>   9.3918  23.6520 140.6837 </r>
       <r>   9.4484  22.0248 141.9299 </r>
       <r>   9.5049  18.0750 142.9526 </r>
       <r>   9.5615  12.4207 143.6554 </r>
       <r>   9.6181   6.5948 144.0285 </r>
       <r>   9.6747   2.1611 144.1508 </r>
       <r>   9.7313  -0.2214 144.1383 </r>
       <r>   9.7879  -0.9295 144.0857 </r>
       <r>   9.8444  -0.7853 144.0412 </r>
       <r>   9.9010  -0.4439 144.0161 </r>
       <r>   9.9576  -0.1927 144.0052 </r>
       <r>  10.0142  -0.0672 144.0014 </r>
       <r>  10.0708  -0.0193 144.0003 </r>
       <r>  10.1273  -0.0046 144.0001 </r>
       <r>  10.1839  -0.0009 144.0000 </r>
       <r>  10.2405  -0.0002 144.0000 </r>
       <r>  10.2971   0.0000 144.0000 </r>
       <r>  10.3537   0.0000 144.0000 </r>
       <r>  10.4103   0.0000 144.0000 </r>
       <r>  10.4668   0.0000 144.0000 </r>
       <r>  10.5234   0.0000 144.0000 </r>
       <r>  10.5800   0.0000 144.0000 </r>
       <r>  10.6366   0.0000 144.0000 </r>
       <r>  10.6932   0.0000 144.0000 </r>
       <r>  10.7497   0.0000 144.0000 </r>
       <r>  10.8063   0.0000 144.0000 </r>
       <r>  10.8629   0.0000 144.0000 </r>
       <r>  10.9195   0.0000 144.0000 </r>
       <r>  10.9761   0.0000 144.0000 </r>
       <r>  11.0327   0.0000 144.0000 </r>
       <r>  11.0892   0.0000 144.0000 </r>
       <r>  11.1458   0.0000 144.0000 </r>
       <r>  11.2024   0.0000 144.0000 </r>
       <r>  11.2590   0.0000 144.0000 </r>
       <r>  11.3156   0.0000 144.0000 </r>
       <r>  11.3721   0.0000 144.0000 </r>
       <r>  11.4287   0.0000 144.0000 </r>
       <r>  11.4853   0.0000 144.0000 </r>
      </set>
     </set>
    </array>
   </total>
  </dos>
 </calculation>
 <structure name="finalpos" >
  <crystal>
   <varray name="basis" >
    <v>       8.08704000       0.00000000       0.00000000 </v>
    <v>       0.00000000       8.08704000       0.00000000 </v>
    <v>       0.00000000       0.00000000       8.08704000 </v>
   </varray>
   <i name="volume">    528.89416249 </i>
   <varray name="rec_basis" >
    <v>       0.12365464       0.00000000       0.00000000 </v>
    <v>       0.00000000       0.12365464       0.00000000 </v>
    <v>       0.00000000       0.00000000       0.12365464 </v>
   </varray>
  </crystal>
  <varray name="positions" >
   <v>      -0.00103517      -0.00818667      -0.00406282 </v>
   <v>       0.24814810      -0.00066188       0.24617446 </v>
   <v>       0.24823314       0.25000000       0.00296203 </v>
   <v>       0.00153585       0.25000000       0.24666100 </v>
   <v>       0.50153830      -0.00012937       0.00111115 </v>
   <v>       0.74888885      -0.00012937       0.24846170 </v>
   <v>       0.75430570       0.25000000      -0.00430570 </v>
   <v>      -0.00103517       0.50818667      -0.00406282 </v>
   <v>       0.24814810       0.50066188       0.24617446 </v>
   <v>       0.24679069       0.75000000      -0.00354394 </v>
   <v>      -0.00232951       0.75000000       0.24616385 </v>
   <v>       0.50153830       0.50012937       0.00111115 </v>
   <v>       0.74888885       0.50012937       0.24846170 </v>
   <v>       0.75710697       0.75000000      -0.00710697 </v>
   <v>       0.50054315       0.75000000       0.24945685 </v>
   <v>      -0.00335628      -0.00421946       0.50325739 </v>
   <v>       0.24674261      -0.00421946       0.75335628 </v>
   <v>      -0.00394518       0.25000000       0.75394518 </v>
   <v>       0.50382554      -0.00066188       0.50185190 </v>
   <v>       0.75406282      -0.00818667       0.75103517 </v>
   <v>       0.74703797       0.25000000       0.50176686 </v>
   <v>       0.50333900       0.25000000       0.74846415 </v>
   <v>      -0.00335628       0.50421946       0.50325739 </v>
   <v>       0.24674261       0.50421946       0.75335628 </v>
   <v>       0.24952141       0.75000000       0.50047859 </v>
   <v>      -0.00640764       0.75000000       0.75640764 </v>
   <v>       0.50382554       0.50066188       0.50185190 </v>
   <v>       0.75406282       0.50818667       0.75103517 </v>
   <v>       0.75354394       0.75000000       0.50320931 </v>
   <v>       0.50383615       0.75000000       0.75232951 </v>
   <v>       0.49925883       0.25000000       0.25074117 </v>
  </varray>
 </structure>
</modeling>
